 # POSCAR file written by OVITO Basic 3.7.1
  
         256  atoms
           1  atom types
 
      0.000000000000      19.720578245100  xlo xhi
      0.000000000000      19.720578245100  ylo yhi
      0.000000000000      19.720578245100  zlo zhi
 
Masses
 
1 18.015
 
Atoms # atomic
 
         1    1       17.687386628000      19.521814537000      10.171854538200
         2    1       13.216297687100      13.160074318600      13.760723690800
         3    1        3.642311919600       6.926557299900       8.792439531200
         4    1        6.820559191900       3.796901532400       3.519373834800
         5    1        3.551597259600       1.786155877500       7.204459688500
         6    1        5.995805168500       2.142976076200      17.718663465100
         7    1       12.647004034400      18.781346265000       1.127204587800
         8    1       12.114035686700      10.920013835700      18.596189755900
         9    1       10.013656059600       3.424438971100      12.592535797300
        10    1       16.837114176400       1.120842729300      16.975887885500
        11    1        0.223933082100      19.623099426800       5.322800994700
        12    1       16.008711846100       3.073274634300      11.850351835000
        13    1       17.912201220000       4.425396361100       2.687717609000
        14    1        6.690383654900       6.075910157300      12.825238620500
        15    1       11.894309003900       4.783029047600       9.325210673000
        16    1        0.674662674400      16.381726583600       5.815894333200
        17    1        6.168813801400      13.123275719600      16.770340298500
        18    1       14.288091394200      13.476688202300       7.668859585600
        19    1        7.227769412000       2.505637510100      15.353791442600
        20    1        2.163406595200      13.392994068200       2.816867676000
        21    1        4.842881002500       8.422757571400      15.648476043300
        22    1       18.641921776800       9.619500862200       7.152101553300
        23    1        9.444007436400      10.177277697300      14.572107162100
        24    1        4.726647914400       6.068298014100       3.675245285200
        25    1       14.418069725400      15.520193681800      13.986031297200
        26    1        1.529784416200      12.995368049100      18.873737174100
        27    1        9.024097163800       6.035759060000      10.928454243200
        28    1       13.059065516800       7.193692252800       5.558087213800
        29    1       12.360325988400      15.734063352900       2.289243605000
        30    1       14.249103811000       3.957722848000      18.724215749900
        31    1        8.927150801200       1.723048055100       8.248348777400
        32    1       10.361684824400      10.700602682200       6.306857849100
        33    1       12.594074002400      13.731990808300       0.542822720600
        34    1        9.506206140200      16.351021643300       3.403653481600
        35    1        2.250808198000      15.615306030700      12.962907977300
        36    1        1.201722736800      12.901892508200      16.108793780700
        37    1       19.531102929300       6.847260854800       2.574225681200
        38    1       15.189045731900      18.290856042900       0.015403743700
        39    1        4.529560455400      16.910869139100       7.967527743200
        40    1       10.763964900100       5.980718926100       4.235230825100
        41    1       16.171268572600       2.236491058200       8.928373477000
        42    1       13.634235901900      17.142684536300       5.480506458900
        43    1        1.633573819500       3.275627487700       5.795503255300
        44    1        3.402332202900      12.082226394000      15.006117648100
        45    1        9.546731928500       4.470655088200       5.863361765000
        46    1       15.395894877100       5.652785430500       5.855966548100
        47    1       17.125448750900      10.178322887900      19.372391715600
        48    1       13.459314372900      19.477029103800      13.700674530000
        49    1        8.003340313300      14.295526052200       9.093079746500
        50    1        9.805820885400      14.020009853500       4.897802813000
        51    1       16.848670435300       8.342613141400      12.305798589600
        52    1       13.164156478300       2.441841439500      13.910915614700
        53    1        3.669703802700      19.355116489100       6.201786608300
        54    1        3.861959720100       9.686629710500       3.405526936600
        55    1       16.500759993900       2.455665564800      18.989812497700
        56    1       15.200207579200      18.474513788100      11.617037673800
        57    1        2.553736000400       6.857850805300       0.263143507900
        58    1        3.314279821000      16.498156877500      15.298080809000
        59    1       14.132003017400       8.014561322300       9.224872370900
        60    1       13.272422452800       6.090542826400      13.539754611500
        61    1        8.166745024600      17.536820013100       5.900061761100
        62    1       11.084542620000      14.366737060200      12.823404606800
        63    1       14.910768652300       6.921134140900       2.790304057100
        64    1        2.522400001600       9.854037699200      14.325363287100
        65    1        2.142640826300      19.113006950000      14.390421474700
        66    1       17.791649325200      12.199110261300      17.873272798600
        67    1       17.277770497300      19.655105925300       5.054482807100
        68    1       12.038703077800      12.321693375600       4.542832404500
        69    1        7.745355708700      12.409449948800       2.362702759000
        70    1        5.290064834800      12.680469855700       1.370816835000
        71    1       17.629072878200      16.832913693300       0.498159555000
        72    1        2.111640077300      16.152869273000       3.169984350000
        73    1        8.786405034200       1.560641205000       1.671786384000
        74    1        7.668110203700      17.848148781900      19.292089521000
        75    1        5.435287173000       6.072695703100       6.720122286900
        76    1       19.703835474200       1.901136709000      14.321675538900
        77    1        7.860346400400       8.810740227800      10.505585883900
        78    1       11.522201413000       4.416324895100      17.100147249100
        79    1        8.869251183400      10.065876150800       3.705378328800
        80    1        4.126254909700      13.406108252800      12.746553513400
        81    1       16.801045238800       1.245403817600       1.366287018200
        82    1       15.950910831200       6.018621877500       0.437824445900
        83    1       18.771111284900      16.518153543900       2.995299467900
        84    1        8.156569206200       7.426730326000       5.706385962200
        85    1        3.083233526300       9.882040920400      11.936254673800
        86    1        5.633755072500      15.430327006700       0.868876845100
        87    1        8.343224479300      15.219770392800       1.428937323200
        88    1       16.103804474400      13.040725379000       5.623894783400
        89    1       13.067979218200      15.709097100800       8.720025567800
        90    1       14.920017603500      17.989959460100       7.402750102800
        91    1        0.185791117400       7.745414870400      12.589952401500
        92    1       16.303988064100      12.545324732900       2.520546267200
        93    1       14.560767829600      11.088585338500       0.342203306100
        94    1       17.748461258900       4.840376489100      16.500799435000
        95    1        1.831667028000       0.667454803100      18.510622166900
        96    1        5.332424636900      12.517538438200       9.491534029900
        97    1        5.220076502600      18.851374038400       0.799054165800
        98    1        3.639136906500       1.796921341200       9.826507772000
        99    1        0.912275921700       8.599394790700      19.121723445500
       100    1       12.055347245900       8.349751990700      17.648241280200
       101    1        9.783398588000      10.277793484600      11.530977070300
       102    1       11.953746826700       1.615561043300       0.005874503900
       103    1        4.724103959800       4.562296615300      11.113748796400
       104    1        6.409207650200      16.603109795000      15.498224957600
       105    1       18.658940635900       2.653285479400       7.060203658700
       106    1       19.418340662900      10.783567154800      10.689993011100
       107    1       13.884312554600       2.849662997600       5.895723233900
       108    1        2.554031809100       0.342895498400       3.703287947500
       109    1        0.696029920900      10.445832531800       5.233013202000
       110    1       11.868731413900      17.933381121100      18.007510774700
       111    1        0.830648504200       0.387619797800       8.658714290100
       112    1       13.794406438400      14.332738783300       4.822213836500
       113    1        3.847504536200      17.554312166000      11.351914219900
       114    1        9.585443423600       6.753962799100      19.419346412400
       115    1       13.069497702700      11.053068577100      10.828766720200
       116    1        5.422587120600       9.760148026200       8.789836414800
       117    1        0.215634662800       2.712486655300       2.165950549800
       118    1       14.360623681000       9.408510395500       2.579530516800
       119    1       10.949496100200       3.487051807000       2.581068721900
       120    1        5.294659729600      15.482862627200      17.990511636200
       121    1        0.518761643100       4.986348209300       8.063428915200
       122    1       18.384154098600      15.206478723100       8.518422096400
       123    1        6.699553723700      16.357135022500      10.342851672200
       124    1        3.490009893800       2.506268568600       3.570390970700
       125    1       12.703326005800       0.756290091900      17.090188357000
       126    1       10.325497563400      18.938637597100      14.899725128500
       127    1        6.460776962300       9.214952920100       5.659155177300
       128    1        1.602334451500       3.681102297000      10.465395345400
       129    1        5.578359968200       4.986880664900      14.907593639200
       130    1       12.550392921500       6.270078970700       0.395866943600
       131    1       19.396490262200       0.008037476600      17.041695455100
       132    1        4.576357387600       7.725891497900      11.235838896300
       133    1        4.637629224200       8.626944438500       0.874885705300
       134    1       16.613896951300       2.911743377900       4.720238726400
       135    1        8.406310609100      18.151273790100       8.854007176400
       136    1       16.121355789000      15.759877589800       9.459093678700
       137    1       12.131803927700       7.381649084100       8.123576678800
       138    1       18.989694174200      16.766928638400      17.511262143700
       139    1        7.239227068000      11.541093727000       6.981025537000
       140    1        5.969221829000       0.108083953600      11.904603145800
       141    1        7.660951633800      12.459224688300      13.609210488100
       142    1       10.317076876400       0.206151036700       5.567572811900
       143    1        3.859198839100       1.105476454700      16.084754395800
       144    1       18.935502025200      14.100055680600      19.521538448900
       145    1       10.226717186900      14.623597591900      18.803374150900
       146    1        8.904629900800      11.993976806400      16.715379046900
       147    1       19.615092872100      17.842627020000      11.113137458500
       148    1       18.985079558900       2.279580521700      11.014159876300
       149    1        6.992029619700       7.306296754600      17.311630730200
       150    1        7.505435153700       2.818405881100      11.871393692000
       151    1       11.425038124000       8.030850519900       2.199791062100
       152    1       17.842212887800      18.141965677200       7.726502835900
       153    1       19.129197544700      13.323262103600       2.514235682200
       154    1       12.040773738500       1.508450694700       3.885900502000
       155    1        3.949992381300       2.863625167000      13.922392991200
       156    1        3.173041039600      14.011668048900       8.338491540500
       157    1        3.075286133300      11.001085132900      19.683326072800
       158    1        6.098273293000       4.739979025300      18.845418423700
       159    1       13.975776596500      15.904429428300      18.511588475200
       160    1       13.775435242100       9.760601599500       5.240033727800
       161    1        6.804822170400      15.147257826600      12.737284841600
       162    1       18.376206705600      10.340307717600      14.165468838700
       163    1       17.865345126100       7.219052916500      15.549064608300
       164    1       18.679292272600      13.872440766500       5.934967184600
       165    1       19.539484175100      15.619999528300      13.392185524500
       166    1        6.154772749700       3.227607879600       6.500020913100
       167    1       16.745906502000      13.210440675400      14.667870290000
       168    1        9.526045041900       2.450163523500      18.757346321300
       169    1       18.808915633400      14.727781406700      15.715624612200
       170    1       19.031127109100      18.343648030900      14.648011667700
       171    1       15.538376054900      15.933635604700       2.237674292900
       172    1       18.927810999700       3.354056227300      18.972300624200
       173    1        5.577472542200      11.179023910400      12.004369551100
       174    1        5.878191639800       1.977047130800       1.290134033200
       175    1       14.760813375300      12.959831567100      17.390355278500
       176    1       13.782416326800       9.296872202100      12.717505101600
       177    1       13.876641249700       7.579643689700      16.091794642200
       178    1       10.268781180300      14.484823882800       7.442605391400
       179    1       18.192253151700       7.324124157300       4.942824893100
       180    1        6.583853091200       9.659395592000      18.705362877000
       181    1        7.090888878400       3.395193353600       9.327123569100
       182    1        2.506781303600      18.623029462900       1.103358464600
       183    1       13.894626417000       0.709928984500       7.878607655900
       184    1       12.378370317500      13.287548136300      16.277858298000
       185    1        1.358483585300       4.931879972200      13.453989816700
       186    1       14.935675742600      18.940353287400      16.666826983300
       187    1       18.906473334000      19.496572196800       2.164294021200
       188    1        4.766463761800      10.669424447900      17.355292090400
       189    1        4.648238895300      12.453860691000       4.208391118100
       190    1        8.499352297300       9.037526877600       0.666640343200
       191    1       10.661378452000       5.580489790600      13.885022495400
       192    1        1.063591918600       8.354327164900       9.499126452600
       193    1       11.405080898800       2.929906030500       7.623088123500
       194    1        5.803963383300      15.894352212800       5.357666977100
       195    1        2.048534226900      19.319008110300      11.329136952000
       196    1        0.603498995700      10.961722858700       1.990516285700
       197    1        1.512848383600      12.886806265800       5.822224638800
       198    1       15.735581837400      15.934049736800      16.453667253000
       199    1        8.153690001800       5.786017657100       8.300489986300
       200    1       10.953164127700      17.070310014200       7.285412662200
       201    1        6.095394088600      19.244405162800       4.318846076800
       202    1        0.753937426900       8.177512460300      15.981083316000
       203    1       15.644492486500      18.244769051600       3.626653780400
       204    1       16.666767821500       2.494239015900      14.925066071500
       205    1        9.957412970400       2.370334622700      15.539401525000
       206    1        9.841929264200      12.980557894800      11.155319775300
       207    1        9.731494026000       7.825815667900      16.524444408300
       208    1       16.616342303000      10.287141038700       5.317377835700
       209    1       16.189155137000       8.644969047000      16.787911333700
       210    1        9.583747453800       8.427372186700       8.313347803300
       211    1        3.393319898600       8.454744349300       6.116988121800
       212    1       16.775704295800      16.081480779800      11.796830185600
       213    1       15.440345060500       5.844291965800      11.579923545500
       214    1        9.040129993900      16.924259411700      16.993794170600
       215    1        4.901411678800      16.993774450000       2.978260888300
       216    1       12.849356887700      16.683293666100      11.487769283400
       217    1        1.416318125200      15.430938344700       9.784128249400
       218    1        6.093343148500       8.557666047200      13.698663031000
       219    1        9.757525189300      14.475318564100      15.400923624600
       220    1       15.138975183700      10.127759325300       7.838693205500
       221    1       18.383799128200       6.903425061600       8.679223691500
       222    1        8.038640148300       4.807167035300       1.320570773700
       223    1       11.561898937000      12.224885057000       8.320861343600
       224    1       12.152293608500      10.387794870000      15.238189412900
       225    1       19.422205896300      10.652168942000      16.527323612800
       226    1        0.728164603200       3.403614040500      16.456171766500
       227    1        2.063640189900      12.211258137500      10.775639482400
       228    1        7.422845372000      13.151653631700       5.084694733000
       229    1        2.916910169400       2.563339922000       0.420675431000
       230    1        2.306242743500      10.497106035200       7.863166443100
       231    1       10.127719884100      17.739843366200      12.209167756200
       232    1        1.957630249500      17.539186482500       8.061239931000
       233    1        9.154213539100       0.187287514800      10.863908790600
       234    1        2.064251527800      16.229858410500      18.402829486200
       235    1        2.696552428100       6.103223158200      15.655220481000
       236    1        9.785981983700      18.750818809900       1.315303407200
       237    1        7.017291680400       7.487233060000       2.455152829800
       238    1       12.186035517900      16.615533759300      15.177410590700
       239    1       14.528366919500       1.074761654100       2.877429571700
       240    1        6.065675177200       0.092712946100      14.686092104300
       241    1       15.614970780800      10.503357458500      14.795087740300
       242    1        8.170058081700       1.287832641700       4.715781875800
       243    1       15.927719431200      11.302849421200      10.863751026000
       244    1        2.994017630300       4.654352274500      18.150484967000
       245    1       15.903542002300       5.681084460300       8.716633628400
       246    1       14.566526238400       4.453537626200      15.840238946100
       247    1       18.338027666100       7.405491263200       0.471049676100
       248    1       17.655892864600      12.061421184000       8.667943520700
       249    1       12.330685959300       0.034917255800      10.366398042600
       250    1       11.475917215900      11.230928472300       2.170959576700
       251    1       17.596731129800       9.872279234100       2.614790910700
       252    1        9.319629749400      11.818976395000      19.488585362600
       253    1        1.696953785900       6.271242484800       5.381331670900
       254    1        2.282558329000       5.168231102400       2.572509990900
       255    1       18.208897319700      13.743251258400      11.521885883800
       256    1       13.230003489000       2.927085987800      11.217952331800
