ITEM: TIMESTEP
10000000
ITEM: NUMBER OF ATOMS
256
ITEM: BOX BOUNDS pp pp pp
-4.3014010350146847e-02 1.9763592255454100e+01
-4.3014010350146847e-02 1.9763592255454100e+01
-4.3014010350146847e-02 1.9763592255454100e+01
ITEM: ATOMS id type x y z
150 1 0.940791 8.5463 7.74527
224 1 6.60949 8.69426 8.29458
46 1 5.18131 2.92261 1.77152
142 1 8.22265 5.03733 3.92271
184 1 2.47312 5.20756 4.36995
238 1 3.64427 1.88247 4.04827
168 1 5.61734 4.96397 3.60175
218 1 3.55484 1.40067 8.56844
159 1 3.79987 8.50905 1.10695
34 1 5.66135 6.60543 6.7945
246 1 7.04221 8.64498 3.23921
186 1 1.81237 7.55065 3.18215
194 1 1.03581 1.64115 4.39366
117 1 6.17407 9.84833 0.774992
68 1 9.59164 3.48609 5.82404
93 1 1.31545 9.38647 5.28301
91 1 4.36257 3.73453 6.58902
88 1 8.64322 7.45697 5.19932
85 1 1.42641 4.53364 7.03868
113 1 2.41677 4.10099 0.466833
243 1 4.53393 7.66214 4.36544
147 1 7.05185 3.42175 7.445
112 1 1.2713 1.89398 7.34974
179 1 5.65015 0.793681 6.57189
100 1 8.8759 1.56885 2.07825
24 1 3.38394 6.52961 8.14632
193 1 0.0207823 2.84081 9.7157
210 1 0.115467 3.56357 2.93455
9 1 9.42282 8.97678 7.96682
74 1 9.76298 5.86195 1.57536
180 1 3.56638 0.266893 1.23837
81 1 7.90723 0.0675934 7.53498
123 1 8.92053 9.06893 16.8656
151 1 4.76577 2.2601 10.8028
174 1 9.6005 7.28127 10.8583
63 1 7.39341 8.55729 14.6075
241 1 8.82149 4.7257 18.9543
12 1 5.96704 4.77165 11.6767
71 1 0.976358 1.64989 17.8995
84 1 4.15719 6.54349 10.9083
248 1 8.19185 9.69245 11.9259
183 1 2.58463 7.83734 16.7657
165 1 5.3916 8.84188 11.2343
133 1 8.46105 0.243322 11.9989
105 1 6.5403 3.70856 14.3758
5 1 0.577255 1.16083 13.4816
49 1 1.97382 2.59885 11.5911
109 1 2.31515 5.18606 12.257
79 1 7.71524 5.9679 15.522
16 1 2.20745 6.77084 19.4337
187 1 0.741047 3.64023 15.2169
254 1 6.64039 8.52138 18.2273
195 1 8.51412 4.82814 10.4013
154 1 4.58967 9.85361 16.8945
20 1 4.98243 4.04841 16.7413
45 1 4.22382 1.50414 15.5022
206 1 6.68697 5.84778 18.4182
4 1 5.25499 0.141163 12.7204
229 1 3.13248 5.55363 15.1393
208 1 3.60571 2.28215 18.668
8 1 8.57326 1.91265 14.3355
13 1 9.78166 2.44791 17.704
14 1 4.77847 9.0204 13.9749
38 1 7.33578 2.01629 19.6764
90 1 6.59812 0.0182078 15.3705
130 1 7.48938 1.80482 10.0013
82 1 6.60572 14.4775 1.64474
209 1 9.07993 12.4562 4.92324
129 1 3.48543 18.7029 8.48863
111 1 2.67416 17.3572 3.34629
162 1 7.39554 15.7746 6.41301
17 1 7.59534 16.7662 9.30657
220 1 5.1669 14.801 4.26466
216 1 5.66626 17.1839 1.79319
242 1 9.72157 10.2154 3.34726
86 1 2.90565 12.2292 3.2123
70 1 6.40284 11.8364 3.48113
252 1 2.96473 15.0391 1.75859
214 1 2.46565 15.19 5.97706
217 1 5.24731 10.9511 7.62208
56 1 9.13108 14.6337 3.3296
3 1 9.62326 17.1116 7.68189
203 1 1.26642 18.4979 1.04776
134 1 7.16916 13.0082 7.23551
11 1 5.46793 19.171 3.82873
69 1 4.36756 17.258 6.07109
97 1 8.07266 17.2357 3.46241
189 1 9.58234 16.0495 0.905899
233 1 2.51535 12.6819 7.81823
65 1 4.078 10.516 5.10122
202 1 8.95973 19.5638 4.58587
175 1 0.335371 13.675 3.35885
226 1 7.35911 14.1163 9.60677
132 1 0.428875 18.3123 8.16076
73 1 9.01865 11.459 9.52928
96 1 2.63632 10.9219 0.693345
116 1 0.471654 13.2338 17.4376
110 1 0.63345 13.4774 13.9378
255 1 5.6405 11.918 13.5913
145 1 8.30967 12.6843 12.3541
169 1 0.245258 18.1722 11.697
140 1 5.02566 13.3354 11.1787
44 1 9.03727 17.1817 12.1858
61 1 2.75687 17.0558 10.5961
157 1 7.56909 16.5872 19.1244
58 1 2.36974 14.4087 18.9874
80 1 6.71158 14.5395 17.3432
256 1 3.42969 12.7625 15.1388
223 1 5.20053 17.1812 12.0709
54 1 0.661873 16.7784 18.8009
221 1 8.98757 15.5834 16.1715
76 1 1.01072 16.4767 13.8774
87 1 9.82924 18.2033 18.0316
156 1 7.56382 11.6839 15.7417
141 1 8.97546 11.5753 18.3795
239 1 4.28977 15.8538 17.3981
166 1 4.00145 15.7864 14.6288
50 1 6.80141 17.0613 14.2997
245 1 2.84775 14.4507 9.8748
40 1 4.0625 12.0196 18.2778
149 1 1.49541 10.9892 16.4696
121 1 6.60064 12.5323 19.279
191 1 4.30816 18.2786 18.5928
185 1 2.07595 18.8988 17.0619
48 1 2.64845 19.2745 14.4231
28 1 1.13923 12.984 11.2448
244 1 6.83034 19.5711 18.2674
231 1 1.06382 10.2773 10.0042
167 1 3.94424 10.9 10.2954
230 1 9.55883 14.9168 13.6493
196 1 6.16061 18.7307 9.9378
128 1 11.1321 3.11956 2.12792
36 1 14.7488 3.13199 3.62331
212 1 18.5423 6.93896 7.48644
198 1 13.3679 9.8138 8.33792
30 1 18.1073 6.2695 2.86468
27 1 14.6393 0.313205 4.10156
55 1 18.2233 0.525662 9.73765
60 1 15.4978 5.80608 2.30377
98 1 16.8487 2.98594 1.4539
240 1 18.2391 5.07871 9.7061
64 1 12.7954 1.96752 7.2898
126 1 12.2766 3.73965 4.6096
146 1 16.3274 3.23526 5.99189
1 1 16.9123 9.15044 6.6155
178 1 12.5863 7.22069 1.71334
222 1 13.7672 5.36029 6.54196
104 1 14.8407 8.44412 3.04851
15 1 11.5762 8.18373 4.35659
153 1 14.5268 8.08945 6.60176
33 1 19.4028 7.7873 1.05254
136 1 18.7444 4.76815 5.55832
197 1 16.7271 0.877628 7.17965
115 1 11.4646 4.74424 7.7982
83 1 10.3487 0.885744 9.72595
125 1 11.7605 7.46882 8.8127
227 1 12.995 4.52513 0.553438
95 1 18.824 0.811276 2.15462
205 1 15.5759 3.97391 15.0199
21 1 10.2897 6.09425 13.9764
102 1 15.7474 9.38519 18.1346
108 1 13.8393 4.62935 12.8831
75 1 11.7262 8.34683 12.5541
120 1 13.9166 7.17625 14.2523
2 1 18.4408 6.02191 18.8429
251 1 17.8412 2.05247 14.2477
182 1 19.4882 6.2428 11.9841
237 1 19.4879 6.8744 16.3703
199 1 14.2944 2.50042 10.813
190 1 11.7299 9.63639 15.4296
42 1 16.4049 7.79668 13.7325
228 1 10.6231 6.70058 16.9974
152 1 16.1615 4.59354 17.6673
171 1 11.2935 3.41396 10.3582
52 1 18.8957 9.04448 11.5492
31 1 12.671 2.94674 15.6665
77 1 13.6353 7.10636 16.8143
176 1 12.325 8.74011 19.0558
92 1 15.502 7.00768 19.3318
25 1 18.0058 5.37414 14.319
155 1 11.9052 4.50797 17.9245
18 1 19.4078 3.57033 19.7128
131 1 10.8849 3.65352 13.4015
207 1 10.7668 0.587626 15.5821
247 1 14.1968 0.494739 15.2991
66 1 17.1883 2.3868 11.5491
200 1 15.0781 2.74735 19.3741
101 1 17.8386 8.81282 15.9901
253 1 18.9946 0.188055 19.2973
47 1 11.6732 1.52999 19.5094
250 1 13.6706 -0.024103 18.3321
137 1 14.2365 19.391 8.1136
188 1 17.4557 17.2218 6.24491
67 1 10.6971 18.7169 1.11851
78 1 18.2493 15.6079 0.286096
32 1 15.219 13.2219 5.33689
41 1 11.5508 10.6992 6.40168
213 1 14.726 16.1121 6.73757
7 1 19.4018 11.9052 7.88198
6 1 15.7367 14.766 3.09147
26 1 11.1007 18.093 3.749
62 1 16.5079 19.1649 2.11569
234 1 12.5558 13.7243 6.16544
163 1 19.7275 10.551 0.272655
119 1 13.3637 10.6859 4.13088
114 1 10.9212 10.639 0.960261
72 1 12.8114 12.4511 1.76389
225 1 15.482 10.4665 1.25167
29 1 18.588 10.8522 5.1542
43 1 18.1258 13.8217 5.16169
122 1 10.751 15.732 5.32465
249 1 19.7225 15.9369 2.64471
138 1 18.0108 11.2975 2.46323
144 1 13.3772 13.124 8.89816
219 1 16.4251 17.6986 8.95409
148 1 16.019 17.4379 0.077556
192 1 13.0139 15.5704 3.02284
181 1 13.3037 18.1205 5.40008
173 1 17.2856 16.8835 3.43681
204 1 15.2111 13.4933 0.604922
139 1 14.1113 15.6959 9.37906
39 1 17.4782 10.4722 9.16766
99 1 19.0219 19.5597 5.92653
89 1 13.3746 17.5405 0.496602
37 1 12.15 14.889 0.234482
103 1 10.7256 19.5788 6.9713
232 1 18.6709 14.0175 9.85542
118 1 19.3941 15.5411 7.05474
201 1 13.0356 13.6105 17.7432
51 1 18.1852 12.6973 19.2247
164 1 15.05 16.7918 11.9607
53 1 16.9303 11.9538 14.1891
170 1 11.0134 13.1585 10.2406
143 1 10.5774 13.2245 16.5322
235 1 17.8098 14.4885 13.7344
172 1 9.96834 11.4133 14.2217
35 1 13.389 10.728 17.2472
211 1 19.5457 10.5544 13.8882
177 1 12.4493 18.4672 14.24
127 1 19.3149 17.3243 16.1838
57 1 16.0531 10.1533 12.3138
22 1 15.5319 15.2646 17.8836
23 1 12.5113 15.3765 13.1648
215 1 13.5227 10.4438 11.1041
158 1 11.93 12.6737 12.88
161 1 14.2224 16.6257 15.6435
236 1 16.0915 12.402 10.5964
135 1 14.4714 19.3738 11.2837
19 1 17.8123 16.2715 11.1052
124 1 11.8195 18.4947 11.3472
10 1 11.3289 16.112 10.0175
94 1 16.131 12.2451 16.8789
106 1 17.9688 15.1863 16.3894
59 1 16.434 17.3507 14.3217
160 1 17.2211 19.4765 15.7559
107 1 16.3632 19.7244 18.4452
