ITEM: TIMESTEP
10000000
ITEM: NUMBER OF ATOMS
256
ITEM: BOX BOUNDS pp pp pp
-2.0442750218181871e-01 1.9925005747282629e+01
-2.0442750218181871e-01 1.9925005747282629e+01
-2.0442750218181871e-01 1.9925005747282629e+01
ITEM: ATOMS id type x y z
191 1 3.71615 0.834368 0.494325
27 1 3.85791 -0.166206 3.06328
107 1 7.74727 3.028 0.868569
49 1 3.90413 4.81042 1.64118
12 1 2.46837 7.21264 1.26841
130 1 6.51115 5.38065 0.627512
25 1 0.140674 5.7424 5.17332
61 1 7.78064 7.63462 1.74885
109 1 9.73924 1.62497 8.02089
147 1 3.02567 4.19217 9.74305
111 1 5.34969 1.44039 4.73983
251 1 5.36402 9.67058 7.19112
172 1 4.13153 3.84341 4.37772
132 1 7.71405 2.38184 3.56582
83 1 9.39783 4.18962 4.6315
47 1 0.11004 2.95961 1.11873
28 1 7.80984 6.85628 4.34593
220 1 3.93157 8.98688 2.91824
173 1 -0.13644 9.73308 6.68797
233 1 1.57275 3.48167 5.40701
195 1 1.4854 7.39144 6.926
198 1 5.63083 5.65262 5.74877
184 1 5.45297 4.56849 8.49145
18 1 3.88898 8.12993 5.59425
87 1 7.63218 9.2225 5.70572
90 1 2.78178 -0.0293566 8.13787
68 1 6.8872 1.92896 8.94119
7 1 1.8735 6.8556 9.67239
154 1 1.43808 2.32782 8.04004
17 1 9.42999 8.65349 7.84326
40 1 9.26174 0.146206 3.5392
45 1 -0.0727878 6.93858 2.53125
5 1 5.35693 0.206079 7.31101
96 1 2.48532 3.14 0.216869
174 1 0.191615 2.09198 3.67409
181 1 9.21946 6.26103 9.11143
203 1 1.44143 -0.173695 4.44516
243 1 6.32749 9.83247 1.77336
213 1 7.3752 1.05832 11.505
160 1 3.36744 3.43443 12.2679
104 1 5.2137 8.5382 17.903
256 1 3.33157 8.89589 11.0322
162 1 2.57942 8.02355 18.8022
247 1 4.66305 1.08474 12.2043
238 1 0.871257 3.22264 13.0384
212 1 8.64474 3.03613 13.0836
201 1 0.976536 7.37158 14.7573
42 1 4.72401 5.18169 13.7893
123 1 7.09464 5.32193 12.7368
127 1 3.31625 7.66631 13.5052
133 1 8.5742 7.4514 13.7522
55 1 6.64403 6.34081 10.1485
207 1 4.74357 0.30697 14.9825
221 1 6.22872 1.87944 16.7353
215 1 0.860297 2.39413 15.7459
163 1 4.9984 4.34662 16.5763
176 1 8.84222 2.44744 15.7589
69 1 8.85775 6.68756 16.5532
193 1 4.8597 9.26193 15.3352
250 1 6.27043 1.35978 19.4342
2 1 2.35121 4.0485 17.6932
249 1 1.02273 6.49755 17.3113
1 1 6.4605 6.2232 18.0108
188 1 5.80212 9.08055 10.009
245 1 7.35897 9.84163 13.8375
99 1 2.20277 -0.165298 15.9726
144 1 1.96138 12.4015 1.02588
121 1 4.22413 13.6967 1.529
79 1 7.95116 13.6991 1.07732
6 1 3.57442 16.3697 1.27993
227 1 0.757521 16.1918 9.11284
57 1 2.17891 11.0735 3.38477
89 1 6.82743 12.1488 2.95152
186 1 8.78149 11.646 4.8589
43 1 -0.0367255 14.2 1.35216
240 1 4.3372 12.5568 4.5439
37 1 1.12719 16.3244 2.61701
22 1 3.95721 15.1822 4.71909
54 1 9.29448 16.0928 2.29565
23 1 5.09431 17.7256 2.96448
252 1 8.0229 18.326 2.14006
24 1 3.74616 11.8873 7.35824
122 1 8.05701 13.3895 6.87156
38 1 1.14586 16.2139 5.4163
118 1 5.99561 15.2535 6.61
214 1 8.93478 17.466 6.62498
135 1 0.697247 18.4901 7.08654
4 1 1.11675 11.837 8.26582
21 1 6.51814 17.8361 7.88214
97 1 4.9593 14.1046 8.9662
171 1 9.30473 15.2473 5.01448
138 1 -0.192019 18.5435 2.79391
141 1 9.7005 12.9025 9.06938
75 1 1.76306 11.0115 10.8014
153 1 0.583402 11.6489 16.006
129 1 7.59558 19.1028 19.6404
92 1 2.69872 12.9338 12.5508
102 1 6.01661 17.2202 18.0561
143 1 6.68195 13.7503 11.375
202 1 9.14942 14.9162 10.8028
208 1 4.2857 16.8907 11.2015
161 1 7.16509 17.097 10.5729
93 1 0.522636 19.039 12.1099
85 1 2.96751 19.4285 10.6881
196 1 8.57909 18.7638 12.2847
178 1 2.21704 19.5454 18.8201
81 1 0.657099 13.7556 14.2096
52 1 5.84798 13.7901 14.0518
73 1 4.6431 16.3403 13.8914
179 1 8.85999 18.0732 14.8206
205 1 2.65905 14.7488 10.5074
63 1 3.90439 11.8984 15.367
44 1 8.88753 12.0043 15.1176
139 1 8.02792 14.53 15.5639
101 1 2.20804 15.6568 15.164
11 1 0.518296 17.9729 14.7398
254 1 6.02094 18.1399 15.4318
148 1 1.50561 10.4224 19.2617
197 1 3.13067 12.4186 17.7432
165 1 5.37496 12.9238 19.426
131 1 9.21728 11.1099 18.0046
145 1 7.37652 10.9264 11.4149
10 1 7.27036 14.4682 18.2583
185 1 1.95446 14.992 17.8212
31 1 3.41266 17.0372 18.9203
229 1 6.57646 10.5027 19.2352
30 1 9.63981 10.3413 9.90444
34 1 19.2647 1.69522 9.24401
180 1 16.2204 1.23798 0.610434
82 1 15.7516 2.95167 2.82242
124 1 18.05 4.199 8.86341
169 1 11.7724 5.37207 0.755147
66 1 14.1199 1.25573 9.34568
70 1 15.9774 5.39074 1.62742
199 1 18.6177 5.35466 0.86561
149 1 19.0615 9.3628 1.93004
56 1 12.1838 8.68562 7.10023
88 1 11.7046 1.00226 2.53196
183 1 13.4812 2.88754 4.24039
16 1 17.9798 2.96232 4.6562
105 1 17.4334 8.90016 7.73438
71 1 11.7798 4.98101 3.52665
108 1 12.5158 7.42008 4.41885
226 1 15.3257 7.37095 3.67925
177 1 14.3507 0.819146 6.74783
95 1 16.8047 0.861887 6.041
167 1 10.1611 4.091 7.22238
115 1 13.0723 3.59033 6.9524
46 1 18.0583 4.95226 6.33573
246 1 16.0829 6.84684 6.42233
103 1 13.8104 6.34792 7.37751
74 1 10.3317 7.54519 0.403678
239 1 16.5389 9.69518 2.94596
3 1 11.6669 1.34175 -0.12991
106 1 10.9035 9.76964 3.71571
230 1 16.973 8.52638 17.9385
114 1 10.2093 3.58019 19.6562
72 1 11.1334 3.20415 12.075
113 1 17.7467 8.152 10.3851
110 1 11.2958 5.68186 10.9543
128 1 19.1902 1.16442 11.9881
200 1 19.466 6.00927 10.5816
84 1 15.1924 8.05523 11.49
9 1 18.7242 6.02193 18.4927
155 1 9.86265 8.61261 18.0073
119 1 16.6717 0.697832 13.0354
211 1 13.0487 2.82272 13.7094
170 1 15.5885 3.17755 12.7962
116 1 16.9795 5.14579 14.0795
64 1 19.5365 5.59211 13.1659
94 1 11.228 7.43426 13.0385
232 1 15.3098 7.45638 13.9253
231 1 11.4499 1.32436 10.1248
32 1 16.8434 0.331535 15.8222
125 1 12.5995 0.488159 14.9558
248 1 18.5942 2.24714 17.2148
168 1 10.1788 4.37841 16.9714
76 1 12.733 4.5415 15.8097
217 1 17.3888 4.38626 16.7583
190 1 13.0683 7.14662 15.0438
175 1 12.5078 8.93644 16.9918
228 1 16.629 9.44586 15.2475
100 1 14.0575 1.66294 18.876
146 1 14.2942 8.22431 19.03
166 1 18.7526 1.4992 19.8309
206 1 14.8164 3.94184 17.5889
59 1 15.4029 3.59847 10.0651
234 1 19.2335 9.79819 14.2288
36 1 14.4732 -0.0588483 16.8444
80 1 13.9512 6.20886 10.1702
223 1 9.92125 0.151039 16.0678
13 1 14.3232 5.64178 19.6567
35 1 16.1612 12.0878 0.0144968
39 1 14.3328 10.2875 1.02701
67 1 12.4449 13.5837 1.47753
120 1 17.3466 14.4242 1.24695
78 1 19.4447 13.8831 4.6036
236 1 17.0747 15.857 7.79246
137 1 11.9041 16.5606 1.98684
41 1 15.8682 18.9818 2.08985
152 1 10.4726 16.9238 9.00848
86 1 19.8183 10.8437 4.22743
112 1 15.5864 11.9642 4.55331
150 1 12.6331 15.1654 8.93018
19 1 12.7472 12.0362 3.72208
50 1 16.3984 14.6508 3.88459
126 1 14.0347 15.9898 4.5372
33 1 13.2673 18.8739 2.9174
77 1 17.6544 18.8921 4.3798
244 1 11.4682 10.1298 1.16723
253 1 16.1797 11.1122 7.0723
91 1 11.8767 14.0807 5.12327
142 1 18.3605 19.7013 7.83207
51 1 14.2753 16.6729 7.12419
117 1 18.1335 16.4086 5.40727
136 1 10.4618 12.5392 0.082227
151 1 12.8098 18.8561 5.74431
58 1 13.7497 10.7599 7.92951
187 1 12.078 12.98 7.73319
29 1 17.5443 13.1862 8.58471
189 1 16.0979 17.0104 -0.140319
60 1 17.1913 18.0084 9.71832
20 1 10.2051 19.7746 6.04501
65 1 19.8144 14.1506 7.56411
140 1 19.9159 19.0724 0.174513
219 1 18.5362 17.1176 18.7422
224 1 13.9707 10.4868 10.9579
209 1 14.9826 12.4616 12.4229
62 1 19.2699 10.3082 11.6914
235 1 13.481 14.8976 11.6699
255 1 17.6821 12.6607 11.2413
53 1 19.2004 17.0831 11.1558
164 1 11.0192 19.1513 11.08
134 1 14.0027 17.6046 18.3656
156 1 11.3799 12.0883 13.9117
98 1 15.4742 11.9136 15.063
242 1 10.9541 14.5207 12.7693
26 1 18.4997 14.8464 12.6782
14 1 14.5586 16.382 13.8159
159 1 17.0387 15.6864 14.732
8 1 13.1708 18.6304 12.9323
241 1 13.0707 11.4745 16.2131
15 1 16.2592 13.9481 16.8498
182 1 10.1735 19.5169 18.6489
192 1 13.5597 16.0073 16.2495
222 1 10.7808 15.8726 15.3438
158 1 18.3875 17.8712 16.1195
48 1 11.6042 10.1473 12.0137
216 1 15.2042 19.5604 11.0058
157 1 12.366 13.5121 17.7459
210 1 14.3359 14.1672 19.3736
225 1 18.6752 12.7987 17.6291
237 1 19.8324 14.9646 18.8636
204 1 11.468 17.279 19.2372
194 1 10.0519 14.994 18.1628
218 1 18.5817 10.541 19.3754
