LAMMPS data file via write_data, version 22 Jul 2025, timestep = 100000, units = metal

256 atoms
1 atom types

-0.2060081334873951 15.370508133487514 xlo xhi
-0.1911666361853488 14.263166636185577 ylo yhi
-0.48875326085052606 36.4664532608511 zlo zhi

Masses

1 18.015

Atoms # atomic

92 1 1.8573635197378864 1.0414843481526261 0.7947538342350686 0 0 0
87 1 4.346599241851492 2.0611785394846045 0.6351286059479715 0 0 0
91 1 2.266370978203339 5.643680552946322 0.7065774125841782 0 0 0
82 1 4.871360165659819 4.57037107879413 0.6300421415623259 0 0 0
44 1 2.3338226543637863 8.249992870792278 0.5852896958109777 0 0 0
39 1 4.694075473898372 9.59970483235179 0.6896420951564453 0 0 0
43 1 2.0994685497153913 12.951492001798217 0.5479423463122357 0 0 0
34 1 4.6759856095143295 12.165525148760848 0.7437715468298902 0 0 0
81 1 1.0063693451611018 2.392472945714653 3.0022084500040798 0 0 0
85 1 2.203101267619175 1.4533608852170516 5.246378466504085 0 0 0
88 1 4.683921542739119 2.066220200288164 5.154655699250596 0 0 0
93 1 6.140824886602429 1.2101370975593595 2.5239652171264484 0 0 0
90 1 1.1959871185163866 5.250368949462952 3.144362888517903 0 0 0
86 1 2.397119819501433 5.849366479009236 5.144358574670432 0 0 0
84 1 4.928435448974589 4.895194623482232 5.245072432604766 0 0 0
37 1 2.4768676171338653 8.619968698415617 5.639649263391474 0 0 0
83 1 5.961642152334702 5.550702682381571 2.7920490890490406 0 0 0
33 1 1.0268814990422537 8.77087116624358 3.1621507905886315 0 0 0
40 1 4.906997173938785 9.339315511496894 5.285610661397058 0 0 0
45 1 5.774773250716838 8.461095636179875 2.9975616490963986 0 0 0
42 1 1.3470798489298246 11.660259659318061 2.9737820364279086 0 0 0
38 1 2.1896834052888283 13.321640004933652 5.3009230571242885 0 0 0
36 1 4.817145638315729 12.175799468029407 5.162046011857262 0 0 0
35 1 6.140595187963387 12.857509330031693 2.8006944637010784 0 0 0
96 1 1.1683085815998675 2.0063723537439744 7.733960924368132 0 0 0
94 1 6.079276207233145 1.1896625625254977 7.725729189049185 0 0 0
89 1 1.2794767784439551 4.515968762119479 7.499003073380635 0 0 0
95 1 6.120379553213449 5.767675746856403 7.748406300870707 0 0 0
48 1 1.0519313193697586 9.350560216403622 7.783930682351821 0 0 0
46 1 6.4525745675628325 8.305612266011929 7.468720967108251 0 0 0
41 1 1.0585190334041308 12.280850659978778 7.715048602738381 0 0 0
47 1 6.331693494312014 12.654969095962931 7.53654644009813 0 0 0
220 1 2.528968179829856 1.0511394201789195 10.168044961972127 0 0 0
215 1 5.228480086037988 1.9686400988430854 10.285905682428318 0 0 0
219 1 2.3171450428850946 6.071157922114676 9.81288108594523 0 0 0
210 1 4.885904261622918 4.924759123175975 9.980873249271395 0 0 0
252 1 2.3656031990759026 8.692207742099367 10.168712786247903 0 0 0
247 1 5.205253584577766 8.977100619332187 9.739059468912695 0 0 0
251 1 2.479456197064874 12.899285912400261 9.99854214931911 0 0 0
242 1 4.964203077014685 11.835721121120745 9.799443637130508 0 0 0
209 1 1.04140859307368 2.1085095810645123 12.336354874100381 0 0 0
213 1 2.4430749066356037 0.9915470026063455 14.45963275009007 0 0 0
216 1 5.1654973097555965 1.9178565625429536 14.626078002295362 0 0 0
221 1 6.489323439885434 0.6827938508126853 12.376200074766945 0 0 0
218 1 1.499145366492825 4.916380018784538 12.141549570442892 0 0 0
212 1 5.21727022443788 4.554368701107509 14.14515264756602 0 0 0
214 1 2.7668771754757553 5.554008201392597 14.326467033156147 0 0 0
245 1 2.6112572697545655 8.380581796320405 14.323976889949254 0 0 0
211 1 6.597169043518347 5.496812945410009 11.99325078871356 0 0 0
241 1 0.6081655675782395 9.247000444698191 12.22248703451319 0 0 0
248 1 5.156287067724492 9.073952290029778 14.062860875039668 0 0 0
253 1 6.401502779806772 8.267000425442047 12.045482356919983 0 0 0
250 1 0.848483800178792 12.040781897384495 11.960588472077756 0 0 0
246 1 2.00266622747767 12.851779582943475 14.36535447206247 0 0 0
244 1 4.7582816342103 11.985323166853943 14.215778679678364 0 0 0
243 1 6.346372070390569 12.579122343542556 12.211816101309683 0 0 0
224 1 1.522268301744462 1.8655817721612475 16.82793142488309 0 0 0
222 1 6.244043941912392 0.932634759727963 17.101443356737374 0 0 0
217 1 1.4218079757945699 4.763616327693088 16.817764718143167 0 0 0
223 1 6.66177850248078 5.81714356642104 16.382463449303685 0 0 0
256 1 1.2681218550897044 9.089756914856784 16.593816769948543 0 0 0
254 1 6.4863547036267555 8.599619765329098 16.499035095455966 0 0 0
249 1 0.9662040499530855 11.953291638593127 16.771629166368083 0 0 0
255 1 6.253776004738938 12.71129357041269 16.67353491759395 0 0 0
172 1 2.4976020786505244 1.0604869438350095 19.176870698027678 0 0 0
167 1 4.929070637786288 2.0765703129974513 18.925445949008633 0 0 0
162 1 5.298468708477966 4.731018482767027 18.74030972890209 0 0 0
171 1 2.764680394849082 5.6771182128852375 18.992802235160894 0 0 0
188 1 2.536188272839231 8.5958925832088 19.091919115865473 0 0 0
183 1 5.265244081374208 9.009417084832574 19.02846327670483 0 0 0
187 1 2.639368135070116 12.86073723025729 19.14967833931925 0 0 0
178 1 5.19538437675633 11.929528274587843 19.163101369297443 0 0 0
161 1 1.349554169122664 2.1295499035009295 21.56039622472375 0 0 0
165 1 2.174261037117365 1.2980861546185063 24.016097176397825 0 0 0
168 1 4.791775179083157 2.2760471252388936 23.87711954545827 0 0 0
173 1 6.1156030159624315 1.1524420180620663 21.514339075788765 0 0 0
170 1 1.3133766340803128 4.9373200543115265 21.278102874819794 0 0 0
166 1 2.4358074373891156 5.942508223814139 23.626899079238793 0 0 0
164 1 4.980208951805795 4.873594598159271 23.767831789383404 0 0 0
181 1 1.7645962154465793 8.661746971485275 23.713847289770012 0 0 0
163 1 6.144635135351474 5.637407203774322 21.40133794504395 0 0 0
177 1 0.9663753287876047 9.402858607631925 20.969904305420823 0 0 0
184 1 4.611318174673159 9.780136917204779 23.70015797489821 0 0 0
189 1 6.192564515182702 8.626077636408741 21.48870223370496 0 0 0
186 1 1.2886553794226359 11.943373342198404 21.347510760719743 0 0 0
182 1 2.4282213455825556 12.876900638014051 23.630336262477947 0 0 0
179 1 6.348033276839021 12.663842377773536 21.35280182635261 0 0 0
180 1 5.377601495555066 12.44877264605546 23.95177848088042 0 0 0
176 1 0.9038944815516545 2.366010751220627 26.44632891892862 0 0 0
174 1 6.32060039361386 1.2441234961511343 26.06637142084904 0 0 0
169 1 1.0981151148089556 4.955260270856459 26.11640098060971 0 0 0
175 1 6.212937345810144 5.84960551704139 25.920960901323156 0 0 0
190 1 6.388602664069446 8.691558971916104 25.94860115763925 0 0 0
192 1 0.9395041951588947 9.211868003076157 26.32057902856324 0 0 0
185 1 1.2541017878437801 12.005115616837541 25.83422599533861 0 0 0
191 1 6.471898718470112 13.21703999955903 26.46518105650767 0 0 0
60 1 2.6083992034091548 1.2325412488768865 28.444537399021833 0 0 0
55 1 5.2652227367902045 2.28572118875812 28.423490560593873 0 0 0
50 1 5.009886593019833 5.191830127509115 28.429533522533053 0 0 0
59 1 2.2230483370265146 5.7492466662551 28.35838885553771 0 0 0
108 1 2.8267275744072817 8.54841935897878 28.657928889059367 0 0 0
103 1 5.357151344293936 9.261996089389688 28.416193108913333 0 0 0
107 1 2.5307897798062213 13.018803188828947 28.232561375909345 0 0 0
98 1 5.095564469044605 12.08269659762071 28.49249795508849 0 0 0
49 1 0.9471302066832967 1.9032098973696834 30.456409914756794 0 0 0
53 1 2.423579853760013 1.0420602352493047 32.66392685556782 0 0 0
56 1 4.957521211670733 1.9934527393377874 33.06352682404635 0 0 0
61 1 6.0891616638110015 1.0317945008711409 30.864621385670983 0 0 0
58 1 1.1240157887673086 4.759127279134106 30.751497389970332 0 0 0
52 1 4.605087143883751 4.832875886888047 33.19449420639063 0 0 0
51 1 6.177006974289704 5.839049066485464 30.80523455987144 0 0 0
54 1 1.9930356926750648 5.528111697374342 33.33881740227821 0 0 0
109 1 6.3867169332049905 8.547596027468344 31.037342129128724 0 0 0
97 1 1.1186207275828401 9.342312908337162 30.626428224510562 0 0 0
101 1 2.0250712610000896 8.25864823455569 33.062168180349175 0 0 0
104 1 4.620693985195616 9.37805523812466 33.20659737019274 0 0 0
106 1 0.9709442618967601 11.96307105600488 30.6090012809663 0 0 0
102 1 2.3331455971376935 12.796764020792248 32.85612661067512 0 0 0
100 1 4.853969655892066 12.08792884277009 32.999742585926754 0 0 0
99 1 6.244667262473138 12.750143542803617 30.84953904688098 0 0 0
64 1 0.9829110253913025 1.7365104298736607 35.55012205267508 0 0 0
62 1 6.007254384126298 1.0504490059070362 35.42646960719577 0 0 0
57 1 0.8502822422031573 4.385784664090091 35.52999806320045 0 0 0
63 1 6.189720303838365 5.661149795601509 35.268035604379804 0 0 0
110 1 6.072216037609136 8.561121493888145 35.31705141990345 0 0 0
112 1 0.8899744077024809 9.151049897083004 35.41602505081245 0 0 0
105 1 0.9973407974368316 11.705661736544668 35.195461282976126 0 0 0
111 1 6.160870870485285 12.812669739536277 35.404323064591935 0 0 0
140 1 9.987168522949887 1.2956806880400238 0.5168103108937365 0 0 0
135 1 12.663658009167417 1.9737434975273724 0.8230864835029952 0 0 0
138 1 8.596862608151007 4.4958535745490265 2.7440793934458965 0 0 0
130 1 12.614644024964814 4.651568523737058 0.6763074689230197 0 0 0
139 1 9.868812908526596 5.53988783363082 0.6631573480112265 0 0 0
28 1 9.977978033513196 8.509681388866454 0.651743272897958 0 0 0
23 1 12.554413102575989 9.113555210228407 0.7081404439672621 0 0 0
27 1 9.863124004510762 12.988099996322772 0.7606606371818792 0 0 0
18 1 12.65786934742329 11.74500852342574 0.9087746772038201 0 0 0
129 1 8.642906306439901 1.9888258216956336 2.796288257974992 0 0 0
133 1 9.687034785204617 1.2178543194221603 5.1143849327601565 0 0 0
141 1 13.883578124310237 1.1578436729547557 3.190629619478993 0 0 0
134 1 9.773963534499167 5.579620086060797 5.3880637173202555 0 0 0
132 1 12.528724743546228 4.76389939360988 5.41598142812434 0 0 0
21 1 9.8155449113593 8.261532347329254 5.227292764315945 0 0 0
131 1 13.791046024197609 5.700662443432003 3.214365478179712 0 0 0
17 1 8.460933579209605 9.44191384355195 3.007118738792002 0 0 0
24 1 12.465209611247559 9.11910459719647 5.268212573873544 0 0 0
29 1 13.983661250551272 8.255687722792137 3.0385660671870283 0 0 0
26 1 8.833456373349101 12.151426766765516 3.446793768599325 0 0 0
22 1 10.084038021096216 12.922297392212812 5.62101201938004 0 0 0
20 1 12.639050742773176 11.855548274095844 5.477910846436108 0 0 0
19 1 14.156725270829845 12.839781687104404 3.2707928441010874 0 0 0
144 1 8.672987715564446 2.0599874183536606 7.718267558374011 0 0 0
136 1 12.534612340097958 2.0639923014284722 5.342563866650858 0 0 0
142 1 14.00505518707848 1.2012080094824404 7.42506167593493 0 0 0
137 1 8.805736273136219 4.992673598021452 7.584844887321363 0 0 0
143 1 14.216191727488486 5.709242714902837 7.72074726807768 0 0 0
30 1 14.103393588767968 8.271596991931043 7.229212066229543 0 0 0
32 1 9.204440220112218 9.289068070759562 7.7315641337374785 0 0 0
25 1 9.132074786124367 12.084796083057011 7.8757852475654335 0 0 0
31 1 13.830658366788697 13.047957126817428 7.797401794039017 0 0 0
12 1 10.0561968527815 0.9988347511453521 9.69575465342154 0 0 0
7 1 12.736218786766315 2.0067248655321084 9.626114184737483 0 0 0
11 1 10.565225711072483 5.474319197040352 9.653726280284086 0 0 0
2 1 12.973385241845683 4.581960001394586 9.832590410315335 0 0 0
236 1 10.509006316068657 8.177891158769478 9.876010692058639 0 0 0
231 1 12.973885057046708 9.301075246865691 9.506370978486258 0 0 0
235 1 10.215999859797623 12.71368257911448 10.267938008537014 0 0 0
226 1 12.71157366047444 12.002500894108636 9.866140811549561 0 0 0
1 1 8.930664181473997 2.052159769462866 12.086154345804278 0 0 0
5 1 10.353528503876081 1.137173773140895 14.751005244949518 0 0 0
8 1 12.92145681862636 1.8990570471271848 14.507840821212602 0 0 0
13 1 14.037134909130401 1.2524044762863877 12.20051029685812 0 0 0
10 1 9.404719088072039 4.826787097387507 11.832526930332364 0 0 0
4 1 13.6744964689203 4.843429385756255 14.588083451343955 0 0 0
3 1 14.488412558311804 5.730713159716566 11.980058206669028 0 0 0
6 1 10.850408101426048 5.588779511965568 14.580004186432506 0 0 0
237 1 13.619462067698386 8.344813114594144 12.030841524797475 0 0 0
225 1 9.242035355134384 9.023963088764166 12.15592129724272 0 0 0
229 1 10.126987932472112 8.269281437560693 14.706988071251848 0 0 0
232 1 12.77870256997807 9.158150831570662 14.66743453273042 0 0 0
234 1 8.819220874915345 11.888606149059925 12.330356934055096 0 0 0
230 1 10.001830525443768 12.993583803706036 14.566362659714294 0 0 0
228 1 12.619716534062967 12.080872252314546 14.282675649716689 0 0 0
227 1 13.934545513521606 12.992785621606304 11.924035277816165 0 0 0
16 1 8.96336847332282 1.9968812318381834 16.882554564970768 0 0 0
14 1 14.397109750108427 0.7933712207692669 16.600069080312444 0 0 0
9 1 9.08397219114336 4.830143976929999 16.790062786852804 0 0 0
15 1 14.43683002906349 5.789301858009165 17.150923588853097 0 0 0
240 1 9.21422862041597 9.47106579071351 16.825221330623403 0 0 0
238 1 14.441970394981468 8.527501975842561 16.92037574910685 0 0 0
233 1 8.90897234549804 12.040307468726356 16.778174632871607 0 0 0
239 1 13.884479015005269 12.649733662013393 16.810640992713335 0 0 0
204 1 10.460422932046093 1.3809262428469136 19.221882992376244 0 0 0
199 1 13.095983684777224 1.9918690153246779 18.896887741868152 0 0 0
194 1 12.728703762809563 4.57724257300785 18.81468872628472 0 0 0
203 1 10.40363083931199 5.924478670435982 18.86617367599561 0 0 0
124 1 10.414506215162863 8.576162005888426 19.46363235104431 0 0 0
119 1 12.808064195526804 9.466633786397354 19.10220580459282 0 0 0
123 1 10.230136226696011 13.165551269882547 18.888209475171298 0 0 0
114 1 12.81406929913086 12.37041580865925 19.66089290943959 0 0 0
193 1 8.613656656431452 1.930129292333158 21.497588962953355 0 0 0
197 1 9.854507529041417 1.3459778052303966 23.877451393537434 0 0 0
200 1 12.57965487562636 2.0075271772842433 23.79951602840038 0 0 0
205 1 14.238148190068188 1.5282452611904747 21.578509289880966 0 0 0
202 1 8.835953851796216 4.821687543002982 21.393592245069154 0 0 0
196 1 12.693859141834313 4.787859104376614 23.91665591619958 0 0 0
198 1 10.18312741239486 5.634160443391878 23.672982613976178 0 0 0
195 1 13.953952932845233 5.365566603475162 21.43973354489556 0 0 0
117 1 10.264883152499252 8.354919603955608 23.78012192530965 0 0 0
113 1 9.09127491499013 9.708744860790851 21.576331437866877 0 0 0
120 1 13.12563588374779 9.291650014232431 23.530085230468178 0 0 0
125 1 14.084495323900267 8.244648108483124 21.13514920756937 0 0 0
122 1 9.162534725917329 12.30824476450779 21.33923343469753 0 0 0
118 1 10.06908389007651 13.201802976538065 23.78833711114263 0 0 0
116 1 12.628382055523616 12.219464398156653 23.956726154971985 0 0 0
115 1 14.339418918189505 13.143949438109312 21.68583868702589 0 0 0
208 1 8.869609441653076 2.060271713768098 26.217765268761454 0 0 0
206 1 14.02175276259867 1.2153580478084103 26.125910313615876 0 0 0
201 1 8.677806157948897 4.958189866811725 25.887116036187905 0 0 0
207 1 13.96607924699046 5.448319362072009 26.169018090181748 0 0 0
126 1 14.090614788311562 8.383092809231727 26.091374732422835 0 0 0
128 1 9.143669433062708 9.425892144139295 26.270400408573302 0 0 0
121 1 8.991269712487213 12.247328634976013 26.265918970561646 0 0 0
127 1 14.555824549073396 13.053486805030895 26.124489401940764 0 0 0
156 1 10.170890041070212 1.1869005247612234 28.694235989844007 0 0 0
151 1 12.759396159726673 2.1245796163632993 28.359867806157435 0 0 0
146 1 12.695006230132812 4.950525782382299 28.59231700340538 0 0 0
155 1 10.089011888588452 5.464435138000449 28.341378771674922 0 0 0
76 1 10.507441034305383 8.225496271543463 28.527360000878634 0 0 0
71 1 13.091077728365534 9.325852013087014 28.279197272357596 0 0 0
75 1 10.270587693509821 12.94339444786052 28.781606068159338 0 0 0
66 1 12.74208683676552 12.136316659977652 28.055870243353773 0 0 0
145 1 8.812306729505888 1.9640751821657223 30.83243195608412 0 0 0
149 1 10.222873205670133 1.2513192813109464 33.079666681182786 0 0 0
152 1 12.879618454223838 2.0002223610932477 32.87223484840284 0 0 0
157 1 14.075375619336164 1.1153360561957917 30.636646992129013 0 0 0
154 1 8.57928834786357 4.754402932618567 30.598030863287857 0 0 0
148 1 13.040123147593349 4.751777592097526 32.78225149955165 0 0 0
147 1 14.270376865975617 5.771411369019318 30.65063966334814 0 0 0
69 1 10.356466231838215 8.396342290832898 32.91152494653659 0 0 0
150 1 10.186196075640254 5.570832240075217 32.6266202175069 0 0 0
77 1 14.156032897007258 8.469857711761753 30.661875691219244 0 0 0
65 1 9.108623767295668 9.397973472858357 30.698841633686918 0 0 0
72 1 12.738805027574692 9.415809756235626 32.998002377931215 0 0 0
74 1 8.996975086745238 12.236227563770639 31.088336838119886 0 0 0
70 1 10.322929327109776 13.183127648971762 33.17008465327241 0 0 0
68 1 12.776354537191537 12.252881107346331 33.14279541969671 0 0 0
67 1 13.978085532280584 12.747625277668584 30.550904568936073 0 0 0
160 1 8.49755392861891 2.0702997570167265 35.40936695536189 0 0 0
158 1 13.843140065079982 1.051860393227489 35.32382129573901 0 0 0
153 1 8.835993231329581 4.848089140103798 34.9986655534949 0 0 0
159 1 13.825709906545118 5.53472856726093 35.354469289680296 0 0 0
78 1 13.697806605826635 8.228909460421338 35.4961218416408 0 0 0
80 1 8.846039898673489 9.194350698625012 35.20782546551939 0 0 0
73 1 8.880532644423262 12.054906073129834 35.209805939892135 0 0 0
79 1 13.960540096672496 12.769224054741912 35.57786758641144 0 0 0

Velocities

92 -1.5006314433126229 -1.7476687549948746 -3.3129020310899553
87 1.6298475422300254 -4.855939160908654 6.196692251981268
91 7.163679615754683 5.9915241741190615 6.171735514413061
82 0.3837776584964915 -5.376714306016653 -1.6376277622743396
44 2.160188102947027 -1.1507616008554509 1.7958356293177549
39 2.14279781612171 -2.0890046952055625 0.4732933950347491
43 2.149691001947829 -4.2929571242046025 1.1062385822172407
34 -14.46956625602202 -4.691318822930621 6.350171902514343
81 7.1542992779436725 1.3194009007153862 -2.3152884751359326
85 0.8133414861997788 2.550991428127036 -2.7534928699565655
88 -0.9739598512588739 -0.8630875871804785 3.5384772045108406
93 -2.442419212369756 -0.29430583119853454 1.8575443318466183
90 -4.017222163987725 -1.5804767737666627 0.7736647204935829
86 2.611570344328144 1.3827791418264328 -0.3509197549053952
84 -1.123732261604421 1.4690941614325843 -3.4560289123533
37 1.461879370004551 -2.453815991863306 3.2067147237050935
83 -1.298688790040829 -2.5117141499184825 -3.19042252287421
33 -3.8860676382417916 0.9579986564814144 2.942652489831152
40 3.519516105077217 0.24404817689664854 -2.5249813568754678
45 -0.8931114261748601 -4.26167065755864 7.329562891225913
42 -3.6326587936557613 -3.19257857959488 -3.5785598766941193
38 -0.409820850260301 3.719759405046728 -2.934947635286008
36 1.7861373916702152 -0.19766191224831609 -1.0046820777612362
35 -8.985966447288009 1.230268451514281 -1.0528579073898379
96 -1.3269005674068146 3.4775327657159028 -10.161094732580116
94 0.38247876066129205 1.4665371767886861 5.220551944354056
89 1.8587515044960934 4.759053989291488 -0.282912516685082
95 -0.022120303398282526 1.8948915124941437 -1.3039249423821475
48 3.089242538291475 -3.613696648933735 -0.6867646105658951
46 -3.1808230377987026 -3.5394158397632056 0.01306753421443329
41 5.248007295978736 -0.9072951914354154 -5.18107403449632
47 3.863432606862024 -0.9694028854954425 0.6212096858100923
220 -3.860843853105114 -1.5369392319898152 1.6271533459902858
215 -0.8679479205151104 0.37865529812571785 1.6721141777442643
219 2.197812633703727 3.61431901151418 -2.612029225602371
210 -0.516414837281584 -4.522474061461289 3.483006234300674
252 -0.3632036896467412 0.8365873727596913 -0.5923791867007183
247 -5.425274282065931 3.891284371472593 3.015132319347058
251 1.2599133689902455 5.963621626196881 -2.7631744612158373
242 6.109115644619485 4.070985442746113 0.2465941332755524
209 -1.1935462515049242 -3.7773302319828694 -2.961572183657082
213 0.37552736723165453 5.167200616044255 1.7744181960293122
216 -4.606246600859428 3.3383406743226427 0.364284165508702
221 -4.085182914611665 3.752645898182002 -3.185117352556377
218 0.1306084797451551 -1.1291611142138858 -4.261459381061305
212 -3.0567336798639904 1.848347654163581 -2.2608551829762007
214 5.36350136280696 -3.24311212825014 -6.153138641212237
245 5.042588055085202 5.006264677341307 -0.6229956439481158
211 2.036465995327865 -0.7927493801788984 -5.117776159251252
241 -1.4004622100062654 -1.64224795696611 1.618671159717186
248 -0.05423081315023805 -0.7868595876990898 -3.5675810023510865
253 -1.5404495477785076 2.750692903166319 -7.827037318148465
250 3.237998745840565 -2.2584463357956754 3.150912708792659
246 1.3259702447888175 4.988722277098316 4.671532320564032
244 -0.9775359114866069 1.9355687345746069 -0.5033980738476563
243 3.8022758624239086 -1.3184070494874416 -1.3326974675026309
224 -2.9535354281566892 -0.2550048356913619 -1.1787400981759821
222 4.9105629735917535 4.619976052577156 0.6896065626209136
217 -2.8893924900709296 -10.135916165085431 -0.5869190288573571
223 0.9805342145759293 2.531264633398191 6.131365516679713
256 1.5853449615607753 -1.0771808868773258 -7.732584500282143
254 4.603843659159359 1.3098233209052639 3.7096088835330754
249 2.9411682322130566 0.31599557761324143 0.8034563533581593
255 -1.2255036784604447 4.4440186575055165 7.487121008138016
172 -0.019412765763874323 4.345296197724674 5.671428852657448
167 -0.24924315450983353 -0.06639385919489726 8.584454481590415
162 1.3402090636247035 5.135092311754988 -1.300715741025739
171 4.812632231940665 -1.7955325812011569 -3.4870131130153563
188 7.762734432331391 0.12636768065121684 1.8571752886383668
183 3.388765456291522 2.8890862819233956 -0.29804224959575054
187 0.6559401260476918 1.6455052331405176 -1.0450839468148814
178 8.301485048272829 1.4972923468266663 0.32712068250381726
161 -3.3891678134431737 -0.7793100378257946 -3.950874470653337
165 -7.841465105150652 -6.731114566972439 2.112405575298367
168 -4.052330037101038 0.09464207300412797 9.878775322262598
173 -0.6986578521893989 4.407631307277163 2.913682954837257
170 -0.510653852999494 1.9440548640744726 -1.0069405639889286
166 -0.2979064225507727 0.9793337516153315 0.017727963451820844
164 0.5522109124148227 2.2007726539546533 -1.8443445284150648
181 -4.231336140607642 13.333285725027324 -3.2175747799518284
163 -0.3508028687222631 -1.214064572259743 -3.5855292501243605
177 -4.960197094103503 -2.20431127291695 2.1261006620821368
184 3.8007427736760344 -1.366266330123841 -7.814472673189548
189 -2.311297377074299 -1.3099866044296455 5.128919199452113
186 2.1319143684338546 -4.3304761051322265 -2.1126442044684715
182 -1.7688304996823347 -2.4826267374425317 3.6740222324261205
179 -0.7832765142244329 2.4333408158782692 -2.765080711992255
180 -1.8589028050515046 -0.5311189494366416 1.7899507811336353
176 2.3858056936054304 -1.0482995482256665 3.952227847120374
174 -2.0525532627170167 4.25740627867058 -5.679853134157324
169 -8.466212484611892 -2.4427691879132123 -3.15535655110254
175 -0.2801062188149506 -1.397495883230258 3.5824590153633062
190 8.133139670868953 7.028994944661512 4.818930739307914
192 3.412489906660702 3.2039489307603617 -2.8743259698163652
185 7.333745121686912 1.0133354833485355 -8.727864627135892
191 -6.8729375674748665 -1.2094865851797851 5.8518004590373085
60 4.68032441894092 0.38092774653221523 1.9965692287852437
55 -0.8714171460552202 -3.576146100110818 -0.7333481762402071
50 -0.4015693567003541 -1.4381452105737045 2.296483399589301
59 0.3226852024620015 -6.402245740330855 5.638022838498184
108 -3.1195636049655326 2.166674183088425 5.096498294307837
103 -1.9162863383661433 -2.2829805361001627 -4.200566202404838
107 -3.978253875009455 -3.3841364592660272 2.113470382367851
98 -6.801309960322585 -3.4754702932371115 1.016181582550312
49 -1.5913186379470692 -3.642609126604683 3.416828599789494
53 2.6740187998671083 7.426910632378581 1.7170599724597297
56 0.8280588173139138 -2.3594211515469494 2.410054759131273
61 -0.02922010789065628 2.9309439334125402 -5.8543865052747375
58 6.342535432433907 -0.18278443798156307 1.6418655243719256
52 5.832662818073855 -2.930125460782756 1.6384997157946106
51 -1.895401073290801 3.9881856702648077 3.8802445832659878
54 -2.083448851064248 -0.038140011096887444 -0.284789340287713
109 -2.196982913542358 0.9026465549102793 -0.5296283835465881
97 -1.7784186131073705 -5.601837916466015 0.5186394878904143
101 -3.0025648960566294 0.030788667823551434 5.689757194416624
104 -0.0930852707479442 6.916250961097651 -1.7251514012334948
106 0.04920173036995734 -1.1721589573551254 -4.952331020829907
102 -6.502064733670414 -4.044057883251767 2.4286847101010753
100 0.3623684422863691 0.936808858493671 -6.44643604241671
99 -2.485966448596696 -1.005083057238931 1.4530095203335793
64 -2.5679357419974465 -4.240861776931233 3.0101616907603432
62 -4.784467722358736 1.5944944908930332 -1.9941495409619632
57 -3.211498198191457 4.879268603475064 -3.059715113478346
63 -1.2040434018288133 -7.458093266645345 3.1038401307207386
110 3.3214917658380423 -0.06433714048897116 -1.3264479789621186
112 3.0429406162479435 3.624566764036726 -4.94326618030673
105 -2.478507481720709 -3.2673939321591603 -4.643672299215579
111 8.026834882977596 -1.6519475485818722 5.048762044486141
140 -3.186561114197815 -1.5648372882159856 0.48908630039606255
135 1.8757373885773 0.08788785218183305 -1.186165572264434
138 -4.687519208828618 2.5147294821073585 3.5489979824922964
130 0.3482899379374668 6.502812404766212 -5.270553476975969
139 -2.7716736294091886 1.0178380644518852 -0.12026281475914821
28 -4.054082825264295 -3.5606548440948944 0.47167050065314403
23 -3.6571006800962436 -0.8886460056576116 -1.111063742991651
27 -1.9475700051554743 -5.51708969009901 -1.055531573439019
18 0.8784163147394536 -4.279093104986247 2.1439428058452537
129 -3.094487857897113 -1.5363242105303778 -4.631707656054722
133 -4.193728128040895 5.351220251866593 4.589131458417106
141 -0.3531545262780709 2.700034029547606 -0.2769309604994097
134 -3.0830098140169104 3.379975097699664 0.6201413501940092
132 2.944052522371423 5.049530262012821 -7.702479123766839
21 -2.5868188341188154 -6.807309044666556 2.1637454389370157
131 1.4086207880190957 -1.3666746675399515 3.2760650314743986
17 1.348449533988638 -0.7198815232842011 -1.7194989883045857
24 0.9723204855824983 0.5219629452860965 1.2644255225142023
29 0.6092840878901085 -0.26911132467451127 3.067065920561343
26 2.9520635438124883 1.512237066421976 2.2635972482188973
22 -2.355774417964206 -1.5503080757285086 -1.7136506344694664
20 4.590408014352297 -2.835009841053173 1.2396575603845295
19 4.241022978424254 6.03979852772222 -2.924076256203319
144 -0.011125402557655484 1.0898466501925879 6.849386544550388
136 5.5802929283701195 5.659290499203243 -3.334608662171341
142 -2.69745505949688 4.491866255191599 -3.981935132506156
137 -1.5620717269864643 -6.090909474309809 -4.044337165456147
143 -3.134676663760177 -3.924481946262474 0.727919102441125
30 -3.0035604263815068 0.70230112550623 3.2394605838561197
32 -3.591479753328631 2.038536192347564 -2.170572911182537
25 2.415729314791067 0.7486611147722823 2.4519097550567617
31 2.1878605296992886 -3.6334402652390496 -5.57734959943978
12 -2.9623973446142027 2.5575478532067835 0.0411365759395837
7 0.8230900909585626 -1.1132895280639719 0.3243999672267446
11 -5.391942649339467 -3.2882811491772332 1.155176491963953
2 1.5254894947975641 0.5291201000142325 2.0556782122131607
236 2.3798094319901066 1.5219303352490734 0.44913329050394213
231 -4.617931136773473 -3.4050502739141595 -0.7679869436338939
235 -0.34840325537705463 -2.9953586610115503 -3.8404275791381903
226 2.0323713204885703 0.08541155152290933 2.314161440696651
1 -0.20165443536712918 -0.8673377748194842 2.029513470425789
5 2.585446308765152 -0.8993459913586479 -1.15820844807644
8 -0.5387485583453648 3.79681348883883 0.18843621722606282
13 3.6978944880146796 3.133182514065509 -0.92388559208972
10 -2.120764156958756 -7.140372851663849 -0.9494129616144888
4 -6.257795170174246 -4.062009749410494 5.7067803312019
3 -1.3108149224638035 -2.7090537544803217 5.2818490871771155
6 -7.68232787250924 -1.6141880440128888 3.1260097359958534
237 -3.037297068115953 1.1982612279046656 0.6173983105144437
225 9.39043844347262 2.358105560091798 5.490394336168201
229 4.1707513876713485 -2.416590351008741 -1.342621089261002
232 2.0280094502046486 1.126317287747015 2.666677812300593
234 -1.1209932620606127 -2.2893050704545006 -1.6362087723779422
230 2.970468693749864 -2.746279065499219 -1.906084766100608
228 -3.7395566140651626 4.971325361090616 -11.56844783008793
227 -2.9365150970155156 -1.1244652055483633 5.138915896627171
16 1.2674856039808355 -0.015998693001181556 -0.6802819856622078
14 4.392599834935268 3.2430905162160775 -2.571425261964789
9 -1.1560099901003118 -2.783262706451984 -5.931087387618576
15 5.987717583531659 0.12130254247629474 -5.8566286423284515
240 5.067034105402388 -4.592091098624919 0.671658319843046
238 -3.1710001876476324 3.873768180769041 3.483304626358636
233 5.159825997121383 7.214386085360275 -0.42843115522069475
239 -0.6520340869836351 -3.0866975723613415 1.863354012949763
204 0.9882745329804302 -2.821150645481712 4.322375950868015
199 0.36527344065063844 -2.022032721775181 3.6902805848507696
194 -1.3138893033567396 1.797368441526661 2.3549892558920202
203 0.7344728652907603 -6.41718901342813 2.7899812910361987
124 -1.1748903325667097 -1.7427971205921213 0.34666985828285174
119 -2.0365695129507997 6.671614022652603 5.443199963213037
123 2.6575147400443675 -1.3482344738565137 -1.597883834857581
114 -4.7124475134888915 1.911927362656208 1.968379942618124
193 3.83207751152335 -4.493350520258215 -1.535274280744643
197 -1.8340882087765196 -3.7855908181329143 -3.7105428135114313
200 0.36732056796017903 -1.339756968430329 2.13326756856074
205 8.283246945990419 -1.73040467414208 1.4737663060532977
202 4.6316869677453285 -5.806803131459354 3.2211501844871298
196 2.111842717503752 -3.6329424143758007 -6.532923177706237