ITEM: TIMESTEP
10000000
ITEM: NUMBER OF ATOMS
256
ITEM: BOX BOUNDS pp pp pp
-1.8536180661344570e-01 1.5349861806611443e+01
-1.7200773798359048e-01 1.4244007737981750e+01
-4.3976995414804065e-01 3.6417469954142916e+01
ITEM: ATOMS id type x y z
92 1 2.17813 1.23533 0.83982
87 1 4.85501 2.03224 0.371764
93 1 6.42859 0.879175 2.45871
82 1 4.77756 4.6894 0.846453
91 1 2.38811 5.95732 0.404939
44 1 2.31075 8.63444 0.379301
39 1 4.99601 9.41706 0.796366
43 1 2.34007 13.1066 0.62844
34 1 5.01682 12.0608 0.958806
81 1 0.913533 2.26583 3.32121
85 1 2.41172 1.4847 5.38375
88 1 5.58357 2.06056 4.90483
90 1 1.16434 5.35958 2.90121
86 1 2.41007 5.46882 5.39435
84 1 4.88129 4.98585 5.16665
37 1 2.43743 8.09306 4.94138
83 1 6.28542 5.77069 2.93341
33 1 0.99664 9.56554 2.82526
40 1 4.74504 9.35849 5.08908
45 1 6.21775 8.52329 2.83375
42 1 0.91677 12.2062 2.74117
38 1 2.34935 13.0118 5.06954
36 1 5.00637 12.0302 5.57798
35 1 6.51104 12.8258 3.22821
96 1 1.23394 2.1691 7.95906
94 1 6.73991 1.13136 7.11332
89 1 1.27576 4.84758 8.02992
95 1 6.32336 5.63888 7.52167
48 1 1.21826 9.25459 7.31027
46 1 6.00829 8.684 7.73134
41 1 1.22775 12.1555 7.66909
47 1 6.3285 12.9916 7.98858
220 1 2.4712 1.00099 9.98793
215 1 5.08472 1.73408 9.50559
210 1 5.17022 4.60106 9.737
219 1 2.90941 6.05668 9.85465
252 1 1.93791 8.79726 9.89836
247 1 4.83154 9.44912 10.1096
251 1 2.13804 12.7674 10.1829
242 1 4.88011 12.0516 10.0648
209 1 1.22527 2.31311 12.0373
213 1 2.49467 1.42366 14.487
216 1 5.08825 2.23599 14.5724
221 1 6.33828 1.16506 11.847
218 1 1.44378 5.19455 12.2959
212 1 5.30463 4.83621 14.7743
211 1 6.30452 5.57003 12.3561
245 1 2.30976 8.33487 14.5334
214 1 2.707 5.61114 14.7417
253 1 6.21119 8.28762 12.2208
241 1 0.83258 9.28923 12.4698
248 1 4.8684 9.48862 14.5182
250 1 1.13475 12.0959 12.434
246 1 2.39031 13.0737 14.5308
244 1 5.16047 12.3789 14.3371
243 1 6.40349 12.9157 12.14
224 1 0.774462 2.08969 16.8837
222 1 6.39259 1.35497 16.928
217 1 1.06556 4.74371 16.952
223 1 6.4393 5.89018 16.982
256 1 0.929488 9.22799 16.9962
254 1 5.88557 8.60832 17.0052
249 1 1.14552 12.0841 16.8795
255 1 6.42082 12.9885 16.6959
172 1 2.30452 1.35366 18.9964
167 1 5.15455 1.96763 19.1117
162 1 5.12614 4.59231 19.0092
188 1 2.15197 8.40999 19.4063
171 1 2.51358 5.74722 19.0815
183 1 4.73921 9.48804 19.2868
187 1 2.36279 13.002 19.1511
178 1 5.0846 12.2938 19.2223
161 1 1.39063 1.868 21.3737
165 1 2.40993 1.13146 23.7149
173 1 6.45279 1.20572 21.5282
168 1 5.24847 1.9585 23.9969
170 1 1.24159 4.77591 21.3799
164 1 5.04703 4.83075 23.5305
166 1 2.34323 5.7858 23.9101
181 1 2.14196 8.30748 23.756
163 1 6.29256 5.77943 21.4256
177 1 0.842473 9.50665 21.6287
189 1 6.09251 8.5128 21.6119
184 1 5.01191 9.3431 23.8807
186 1 1.36256 12.3956 21.5693
180 1 5.29522 11.916 23.8518
179 1 6.48858 12.7941 21.6177
176 1 1.05663 1.69537 25.9857
174 1 6.49191 1.3487 26.3575
169 1 1.10334 4.38518 25.8451
175 1 6.54375 5.36063 26.1007
190 1 6.18009 8.00873 26.0163
192 1 1.11414 9.21087 25.9847
185 1 1.19993 11.9658 26.3902
182 1 2.69504 12.9322 24.1356
191 1 6.03368 13.0097 26.4385
60 1 2.55608 1.11896 28.1539
55 1 4.87521 2.20323 28.2867
59 1 2.52046 5.10696 28.2961
50 1 5.24639 5.00357 28.6525
108 1 2.65347 7.98593 28.1418
97 1 1.40963 9.03765 30.2378
103 1 5.00718 9.274 28.0382
107 1 2.51982 12.9561 28.5092
98 1 5.04488 11.9949 28.6043
49 1 1.38687 2.12907 30.6267
53 1 2.50351 1.54174 33.1411
61 1 6.08343 1.38237 30.5859
56 1 5.01714 1.89969 33.1275
58 1 0.8152 4.652 30.5237
54 1 2.14761 5.47575 32.8448
52 1 4.87379 4.87169 33.3393
101 1 2.28499 8.06991 32.8005
51 1 6.27628 5.7962 30.9989
104 1 4.81571 9.36464 33.0354
109 1 6.25171 8.774 30.5851
106 1 0.842967 11.7064 30.4329
102 1 2.14059 13.0072 33.0082
100 1 4.80553 12.0199 33.108
99 1 6.4568 12.9041 30.912
64 1 0.985366 1.89764 35.1079
62 1 6.49018 1.12416 34.9871
57 1 0.922878 4.76292 35.3037
63 1 6.38496 5.62651 35.609
112 1 0.905405 9.50457 34.9599
110 1 6.07581 8.58689 35.3147
105 1 0.845811 12.4648 35.2503
111 1 6.00512 12.9016 35.5207
140 1 10.0522 1.06502 0.870602
135 1 12.4757 2.35169 0.254449
141 1 13.9371 1.38823 2.47331
130 1 12.9938 5.01707 0.661813
139 1 10.3324 6.01966 0.689416
28 1 9.92776 8.58973 0.658568
23 1 12.6298 9.17285 0.608599
27 1 9.9715 12.7969 0.780536
18 1 12.5196 11.9835 0.541379
129 1 9.01541 2.00829 3.02933
133 1 10.1548 1.28444 5.26861
136 1 12.6512 2.10789 5.20815
138 1 8.97543 4.76447 2.96688
132 1 12.8192 4.76447 5.51619
131 1 14.0435 5.54188 3.28059
134 1 10.2561 5.68002 5.60643
21 1 10.2584 8.45012 5.43541
29 1 13.8655 8.23969 3.18454
17 1 8.8559 9.0365 3.25311
24 1 12.7181 9.3122 5.27451
26 1 9.21667 11.9938 3.23345
22 1 10.4473 12.7462 5.55524
20 1 12.8654 11.8667 5.37374
19 1 13.6717 13.0955 2.96702
144 1 9.23925 2.15255 7.49314
142 1 14.2687 1.21564 7.87634
137 1 8.98587 4.70444 7.53311
143 1 14.0767 5.52922 7.85734
30 1 14.2319 8.35473 7.39345
32 1 8.98894 9.19504 7.83936
25 1 8.86538 11.8843 7.54871
31 1 14.2057 12.5119 7.67045
12 1 10.1057 0.932041 9.88562
7 1 12.7384 2.1881 10.1943
2 1 12.725 4.86771 10.0423
11 1 10.1568 5.76805 9.81259
236 1 10.33 8.51118 10.0651
231 1 13.0957 9.36037 9.89399
235 1 10.2637 12.6962 9.83924
226 1 12.8518 12.2873 9.98358
1 1 8.93749 2.07555 12.0558
5 1 9.86307 1.03895 14.3744
8 1 12.2763 2.16082 14.795
13 1 14.1338 1.50588 12.7841
10 1 8.91895 4.87499 11.9845
4 1 12.6714 4.74427 14.4417
6 1 9.9906 5.82636 14.3508
229 1 9.86648 8.4755 14.739
3 1 14.0855 5.69888 12.1876
237 1 13.8033 8.30179 12.3361
225 1 8.80362 9.31332 12.3121
232 1 12.5891 9.08248 14.4928
234 1 8.87717 12.0348 12.2164
230 1 10.2265 12.7393 14.5617
228 1 12.9985 12.0955 14.8315
227 1 14.1009 13.2583 12.5327
16 1 9.28792 2.03106 16.8008
14 1 13.7986 0.93038 16.7993
9 1 9.08428 4.88545 16.9607
15 1 13.9559 5.28443 16.8007
238 1 13.9453 8.17193 16.809
240 1 8.58841 9.42705 16.9239
233 1 8.98885 12.0966 16.8829
239 1 14.2623 12.7027 17.0244
204 1 10.0788 1.20296 19.4976
199 1 12.6375 2.28189 19.2036
194 1 12.7924 4.91818 19.1529
124 1 10.0107 8.44176 19.1246
203 1 10.2767 5.74849 19.3973
119 1 12.6811 9.22707 19.2437
123 1 10.0751 13.028 19.2298
114 1 12.7121 11.9487 19.1208
193 1 8.93931 2.16361 21.6136
197 1 10.3722 1.01541 23.5189
200 1 13.0094 1.89579 23.5876
205 1 14.332 0.997085 21.2896
202 1 8.80452 5.17258 21.5828
196 1 12.9749 4.63788 23.3895
195 1 14.1977 5.38987 21.3017
117 1 10.1536 8.4073 23.5304
198 1 10.3141 5.67455 23.6555
125 1 13.9441 7.90712 21.5195
113 1 8.58874 9.24059 21.3826
120 1 12.9265 8.82747 23.8134
122 1 8.88835 11.8336 21.5339
118 1 10.3011 12.6462 23.8382
116 1 12.7821 12.0453 23.8568
115 1 14.2754 12.7811 21.538
208 1 9.00088 1.9599 25.8419
206 1 14.074 1.14516 26.0367
201 1 8.96258 4.56694 25.7319
207 1 14.2071 5.23783 26.0113
126 1 14.1769 8.09276 26.0756
128 1 8.77916 8.92971 26.0479
121 1 8.72819 11.798 26.1571
127 1 13.9779 12.9586 26.1308
156 1 10.2347 1.19703 28.1675
151 1 12.7912 2.00268 27.9651
155 1 9.85793 5.06521 28.1838
146 1 12.6495 4.60315 28.1778
76 1 9.94972 7.83753 28.4105
71 1 12.7247 8.93411 28.2367
75 1 10.3648 12.8572 28.1181
66 1 12.8482 11.6517 28.0543
145 1 9.09904 2.05794 30.4706
149 1 10.33 1.28786 32.9463
152 1 12.7013 2.18527 33.0714
157 1 14.2839 1.19813 30.5047
154 1 8.76257 4.92314 30.8593
148 1 12.5333 4.92858 33.0195
150 1 9.65971 5.97795 33.1959
147 1 13.8833 5.72156 30.4947
77 1 14.081 8.35338 30.6862
69 1 10.1058 8.67011 32.8967
65 1 8.71068 9.50098 30.4339
72 1 12.5221 9.30794 32.8526
74 1 9.08951 12.4767 30.5066
70 1 10.2194 12.8741 32.8565
68 1 12.5938 11.9769 32.8514
67 1 13.5645 12.8739 30.4009
160 1 9.03679 2.08522 35.1886
158 1 13.9115 0.956946 35.1642
153 1 8.84798 4.91153 35.601
159 1 13.9682 5.82053 35.1877
80 1 8.47073 9.44174 35.2515
78 1 13.8444 8.53651 35.0032
73 1 8.63312 12.1035 35.3135
79 1 13.7662 12.6884 34.9977
