LAMMPS data file via write_data, version 22 Jul 2025, timestep = 10000000, units = metal

256 atoms
1 atom types

-0.2471887582547545 19.967767003366557 xlo xhi
-0.2471887582547545 19.967767003366557 ylo yhi
-0.2471887582547545 19.967767003366557 zlo zhi

Masses

1 18.015

Atoms # atomic

28 1 -0.03126054731252145 8.568939160345057 2.9155587912209695 -5 0 -5
92 1 6.162512498105453 0.9337017794783868 0.609711983213295 -1 -3 3
61 1 0.931972704470855 4.3885078216746765 0.9673073946167428 2 -3 4
19 1 6.178220433998548 3.602393513218811 0.44662637964908247 4 -2 3
56 1 9.275387798624376 5.199186910056279 4.4681990373103915 1 1 2
209 1 4.65126083418236 9.210094826556045 9.137184795414807 1 7 -3
5 1 0.48178193176992035 7.2408650004515085 0.47988651520175096 2 1 -1
33 1 2.859290443308033 8.594959554134185 0.04931668526303812 1 2 -1
87 1 7.509007053686253 8.455836656185111 1.8594956959728188 -1 1 -2
238 1 0.19984534860386904 -0.04142905433216204 4.372371260660914 -3 -3 -2
192 1 2.8061208457643123 0.9990619369758582 3.6127234261435732 -1 7 -3
168 1 7.844023988391827 0.6398385313778294 2.6499003068686298 -3 1 -2
144 1 2.5519208630501704 3.7008549079549096 3.150389204740078 1 1 -1
188 1 4.9368669422404015 4.917447800616962 2.3787589903439907 3 1 0
232 1 2.581374179863526 7.339540904227694 9.222063224565133 1 2 -2
203 1 4.243783906768875 8.62664074367935 4.3455573751088625 4 0 2
137 1 4.951461878977004 7.523644680410915 1.8521945710505956 -4 1 -2
206 1 4.6260101648954315 0.6539494342077824 5.539413405543602 -6 1 3
207 1 6.9318983670545355 1.95364523265855 4.981936258786335 -4 2 1
249 1 8.655631101690194 0.6669088665687362 6.934223653888476 3 -2 3
147 1 6.532831683856789 4.581305313521208 4.581509809263066 2 -4 2
162 1 1.823676783551908 4.986245936341299 5.454736296050518 -2 1 3
68 1 5.965294478919162 5.599117621605716 7.051073013955588 3 2 -1
76 1 0.9021228640486407 8.447746312148883 7.193113319718096 3 -5 -5
12 1 1.9873225221462287 7.575210185227314 4.721999471114578 6 2 -1
173 1 5.695740838874452 8.37402017869912 6.717766005530151 0 -2 -1
29 1 8.300827320606174 9.264556362896137 6.17960303387556 -1 1 3
54 1 3.80197215466277 0.59824371923541 8.32106768999731 3 -3 0
67 1 8.738229938501446 4.480804096572969 0.1582625552406804 0 5 1
95 1 3.3372213196105807 5.240392673865953 7.611188847818958 -4 -4 3
115 1 9.173130133582667 6.408296868945495 1.9179097003545995 0 -3 -3
38 1 3.129918307930626 3.158222755094016 9.395126800570354 -1 0 0
155 1 7.4194094479879045 5.879406419055314 9.407505864455063 -2 -1 3
120 1 8.623722587378328 0.03442502076025716 9.767835973459036 2 3 -2
150 1 0.3200782495129466 2.8167977728840414 10.262789660707359 -4 -1 0
169 1 8.933684546756147 1.8541295786209422 11.877500569549118 5 2 -3
235 1 4.2355882454245855 7.217162155326659 18.098520235755558 -6 5 5
20 1 4.58559607136028 3.0027209229892335 11.712079006221586 -7 -5 1
141 1 7.225498401766628 3.829191320587217 11.30316969064782 -1 -1 -2
177 1 1.6324737351667862 7.709815675486662 11.861120519044977 -2 0 4
237 1 6.798019873713859 8.295150894257095 10.755384516780069 3 -1 2
18 1 0.6743013968808612 0.032038571152587014 10.566374156285354 6 -2 9
104 1 1.3189051262017215 0.5098096585447373 15.038319834978598 2 -2 -5
131 1 0.38531062411109374 6.819842468538158 16.407256144308754 4 7 -2
243 1 9.155931951027904 0.4342604088093952 14.375192426279957 -1 2 -6
176 1 0.8264158763030978 3.159888872715702 14.447229241717222 5 -2 0
158 1 8.796777979372614 6.030365492919114 17.986975858527035 0 1 -3
166 1 3.5183312267443565 3.8326979823841025 14.148062509296059 -2 1 0
102 1 3.5683554887934448 6.615844257566949 13.592357216129383 5 -1 -2
194 1 8.123919752343932 5.214204148658123 13.364489554440041 3 2 -6
10 1 6.420820793417014 7.445883909028145 13.355493967566257 1 3 -2
51 1 5.8151976395157225 0.9856104816506326 16.611998361296514 2 4 -4
31 1 4.884579137622984 0.256850479825238 12.507430561478126 4 -3 -4
44 1 0.16243349550092845 4.2745374323641805 16.83512356054513 -2 3 4
208 1 5.453476689733777 3.671693538467538 16.433006186463203 4 2 -1
25 1 8.196588437504325 4.301426177066617 15.804165800719037 7 -4 2
91 1 4.552729669354685 4.714168916784075 18.827920227637417 1 1 2
6 1 2.7688901210000827 7.9244789832852405 15.835802771514143 -5 -6 -3
134 1 6.979375752103556 9.351952644585339 15.286592836804779 -3 0 -3
197 1 2.3469459858307284 0.7003851582122765 19.451023261781923 3 2 0
1 1 6.961934824703049 7.823556755632437 17.631278885865694 1 0 -2
205 1 2.1856976208967693 3.4262855518611235 18.785033423465062 -1 0 2
138 1 7.500169738497558 -0.0481467701638042 18.658233589021492 3 6 -1
126 1 9.175470298234545 9.568203985395607 10.75033027936541 3 -2 1
83 1 3.287650908180915 -0.19629009317647014 16.999203251320985 -4 4 7
220 1 9.844889844255837 2.3174859670519963 16.310424982067275 2 -4 -8
79 1 7.61580956031681 9.822403132881751 19.624977370804338 4 -6 -8
133 1 1.4697001099893392 19.400722023839094 8.247668534899002 -3 1 -1
64 1 2.224366864905003 14.867038715990837 1.3634430894090115 5 3 -1
148 1 6.807198785882938 13.660845027740475 1.6726738238971397 -2 3 1
217 1 9.355315943118656 14.613140237464906 0.8720202650124766 -1 2 4
50 1 4.8909229080691965 15.230304645770307 0.9722667079710965 -3 0 0
231 1 3.849380188485388 11.305620556057983 4.408358590268958 -2 -8 3
39 1 6.497323202292646 12.373122239160134 4.048820946442557 -3 2 -2
190 1 3.297891715868364 11.127445403127874 0.05096820655726281 0 1 -1
118 1 1.994717252462674 12.17610215187185 2.225200856365948 0 -1 1
164 1 0.8957222631994459 17.124391083775865 2.196569633487568 4 -5 1
99 1 9.653389218861133 14.346606911726537 5.312782785291387 5 5 -3
3 1 5.166464469257182 17.578279262608607 2.469361370460323 -5 -2 2
106 1 7.789095593175205 18.113890470698454 3.2278601111922667 -1 -2 -1
236 1 8.292310707523676 10.53913195388053 3.611240756536667 3 2 1
72 1 2.5375601730829236 12.448244384823665 6.513114991311511 2 -1 2
7 1 1.3552360215398065 15.232382851254462 6.477407417801666 2 1 1
233 1 6.722689765596513 14.260583996695537 6.262297272291765 1 1 0
219 1 0.10552109102640644 11.07592944448621 6.87902378186637 -1 -2 4
186 1 6.1261001063562 16.952579386044043 6.666587076985556 -3 -4 2
247 1 1.693431829856722 17.555880752657995 4.95222911010294 1 4 -1
149 1 4.510681676671279 18.22989549395638 5.025652129996552 -4 2 0
139 1 8.398733832548418 18.195833186498984 6.056105165274343 -2 -1 1
142 1 4.410162109757462 12.116633087213733 8.583242886321782 1 -2 -3
86 1 8.9101597004009 10.847555588487255 8.302668733168595 1 4 -1
43 1 7.023754595103356 12.93574826228082 8.517295704532803 0 6 6
85 1 1.370730493111106 16.646111228801168 8.582744053239223 -3 3 -1
228 1 5.714262007276126 16.791814542779136 9.423289713289684 3 0 -1
81 1 9.658989166160078 16.135083005362368 3.194636752036477 -1 2 -1
182 1 3.879700146050152 19.892376516416753 1.3141524111566394 1 -6 5
114 1 0.7655514782101711 12.214312304660304 11.259565838717746 -2 3 2
93 1 3.427010971986982 13.108522540297864 10.931036850242666 -3 -1 2
15 1 2.449098085699676 19.821636323088427 12.62061874205116 7 1 2
111 1 3.3626320622435686 15.824281585720154 10.116779713924563 -2 0 -4
183 1 7.2265124653892885 17.448295500508088 18.164835753240318 1 -3 1
94 1 0.8807477530692047 10.077406864168418 12.915367703698832 3 0 1
179 1 6.545693620328578 19.70119540688718 14.41206600893738 -5 2 -2
90 1 5.325642676380569 13.27182744855051 13.000396097818964 -2 5 -3
113 1 8.27683640813431 13.804432623782633 12.630152310473637 -5 -4 8
48 1 9.279955421214632 15.875482602355081 18.710957429479915 -3 -2 2
221 1 2.627711491393385 16.650260813523943 13.01193909490278 3 3 3
74 1 4.402103348266164 15.486200577400963 14.734290181068397 3 0 2
75 1 8.850793487831849 15.757324020608802 14.650138159712641 -4 -1 1
160 1 6.03720657668233 19.564085297512833 10.178962041537611 -1 -5 -1
185 1 0.7143556266038392 14.413233840805917 19.539823719380877 3 4 0
226 1 2.5486229793068866 10.514012082691417 15.24583348665135 -1 3 2
73 1 5.2607108587512625 11.472212611972967 14.944251309805948 4 1 1
198 1 7.612172208108551 15.020190782586395 10.036355360125697 1 -4 -3
250 1 2.721411738621481 13.309698245676977 16.269557113738873 3 -5 3
135 1 8.55109463099803 13.807005141349698 16.8294672343407 1 0 2
130 1 3.115434534516847 17.132392758378725 17.09997956709547 0 4 0
98 1 6.720200336420256 17.113284980382748 15.235605267319315 0 0 -3
227 1 4.938907820156303 15.816576979760224 18.588706014484806 -4 -3 -2
122 1 1.529914170287238 12.000919559574664 18.34658394758305 -5 3 2
167 1 0.6092610533015221 16.334649607081477 17.60423721976085 4 0 0
100 1 9.549466631262868 10.10119625956204 15.210086869150913 3 -6 -4
199 1 5.521039429689256 13.341256028283428 17.366043882589082 4 -2 -2
117 1 9.610500120083534 11.461098383812713 12.650164044821135 -7 1 -3
30 1 5.746362094115628 12.04920945053167 19.6868027897074 7 8 -5
248 1 -0.1220239019276306 16.210132581178833 13.491205866244831 0 -5 1
240 1 -0.0787772923595122 14.348858341068635 15.736262524918269 -2 1 2
16 1 10.395360855385608 1.0361128337057166 2.5953515202272714 -4 3 -3
49 1 14.658850342599878 -0.17199472045146055 2.2567186012870635 5 -2 -1
157 1 9.990797797250593 6.925829302742449 6.282237703335417 1 -4 7
59 1 10.10038168790035 5.6767566716551485 8.825703858826447 4 1 -1
170 1 18.333199212838778 3.8297272594629774 1.574464120443328 0 0 0
101 1 11.95649831351862 7.034791972509632 1.587412562543116 2 -1 3
224 1 13.978985628495284 5.316786942957204 1.6719872167938932 -2 -1 3
201 1 16.63007757781873 6.104257127634781 1.3385588154078163 1 1 2
46 1 15.618357615245218 1.5839649848154171 4.233833897781074 -3 -3 -5
47 1 11.12483893716312 3.104797149516762 4.203237876384137 -5 -1 -2
181 1 13.853094352377367 3.6690532921732624 4.0701264085968285 -1 1 3
24 1 18.439225024921623 2.4636924160844047 3.934478431451101 -3 -3 0
2 1 12.715272995332239 8.785804283056189 3.5048097664845685 -4 3 8
229 1 17.362087697642334 8.098923202796952 3.3242928208239544 4 -1 3
230 1 14.190555556535843 4.634321969968342 8.504567778111417 -2 0 0
55 1 11.112220691652 2.0557720087513323 6.867775633696528 7 4 5
128 1 19.507049341835188 4.093069843227316 6.004032917548015 -5 0 2
125 1 15.445056996732903 0.5254387851907036 6.795491196866528 0 0 0
172 1 15.918303704000273 2.554543035702003 8.619342128678904 0 5 0
202 1 18.889226186155256 6.561205160461348 7.508277889061306 0 8 -1
171 1 14.58589624414377 5.732679969977735 6.083785966170839 4 -2 0
32 1 12.57733608473359 7.830935915632672 6.101778163349256 -1 3 -3
121 1 16.77192902440704 7.392550722243657 6.187956912968406 -5 -5 0
234 1 18.67019584637234 2.573324418869405 8.127790372555713 -3 3 1
161 1 11.782947950269424 3.4174417861570756 8.94039051257649 2 0 -4
103 1 13.33597467698249 9.173712132523896 8.234167516190363 -6 -3 -7
244 1 15.23718218416674 1.3362596006104577 -0.06335840431401293 4 1 1
109 1 10.696305821054821 2.666181528014355 0.4283695516973096 3 -1 2
65 1 19.38528153993573 0.08392638658333273 7.02017402411518 2 5 -2
204 1 15.21108907414035 9.674410890893114 3.480056924490922 -3 2 1
89 1 15.924468842428631 9.680170005745206 7.523194017916679 6 -2 2
123 1 13.291017285910305 3.358190192947683 0.09575448566743305 -2 1 -2
80 1 12.691934877779456 -0.15183226304478603 7.161290998838786 -7 -1 2
69 1 13.25375657792698 0.5467918846136508 11.463739689239427 -6 4 0
156 1 16.026209697816665 1.244066146856206 10.978827540161038 -2 -2 5
252 1 19.17766674024399 7.945509486692217 18.628148467858505 0 0 2
26 1 11.550288139388714 2.500352361252801 11.513899104860949 5 -4 -1
63 1 15.162159329654006 6.231048483034789 10.417189621219952 0 -2 -4
70 1 14.466101865509014 -0.18567124911576485 18.177105672586222 5 1 -3
242 1 12.092771154704561 8.644662518447491 19.515607758908715 -3 5 0
239 1 10.952689996295202 7.320880748923679 10.731823014865714 -5 0 2
145 1 13.404390799164657 8.0977945311652 10.82464367382313 3 -3 5
253 1 10.137665579659709 0.8330339962317148 18.57049886792698 -2 1 -1
60 1 12.551842276595663 4.203716319514607 13.559554647829664 3 1 -4
214 1 17.022253820075925 3.1586746727758865 12.766358917407187 -3 2 0
11 1 10.645381254296383 6.10217299265085 13.257369456864135 2 -5 -2
184 1 14.978464706712012 5.108458391352507 13.075559478980166 0 -3 -2
180 1 15.701841238162165 7.032813602382608 15.15751707873936 -2 0 0
256 1 13.969137772500817 8.745003430902095 14.967755501342541 -4 -3 -2
82 1 18.37039973960467 7.801824293891714 14.637277091526668 0 -2 -1
211 1 14.485296104918174 1.1771601563685337 15.629922533271593 2 0 0
27 1 17.04240250707221 1.9851054070884495 15.249289311956826 1 0 0
241 1 19.400974382902557 6.540366264568286 12.288521822799286 5 -3 -3
22 1 12.496636384125672 3.20299346691506 16.179185557565194 3 0 -1
153 1 17.813919113132084 3.6677072002466393 17.350202653647017 1 7 -1
112 1 15.746348572731861 5.571393425092248 17.281099570017954 3 -5 -2
146 1 11.354906366217017 8.023717830195775 15.019231156414406 -3 0 1
77 1 14.71497222220261 9.452201121987589 19.05984196959607 1 8 -9
96 1 13.267359874152609 4.983311567414919 18.083800915837884 0 2 0
53 1 19.764091260769796 -0.09324350807620616 19.6617110753564 -6 1 -3
132 1 16.50352757618971 7.3189721038886155 19.10027925990404 -1 4 -2
189 1 11.38292878373289 6.957951378683845 17.523075094017635 0 -4 0
88 1 17.903476240849983 2.1049402269893487 19.660782046997173 4 1 4
116 1 17.84646342573915 6.930593120650712 10.058246321586205 -1 -1 -4
154 1 18.909790805428848 -0.15988363561419577 15.437509025404848 1 -9 5
8 1 19.54527609983842 4.055674263976357 12.552636234304043 -3 1 -3
4 1 16.822576564623677 9.54804034010411 10.105292081223213 -4 -2 -2
119 1 10.99874217463313 12.584176019306586 1.4374007136615152 1 0 -2
35 1 15.457247084823786 10.788425879245246 0.9670697413616427 -1 3 6
163 1 17.953764200599018 11.540251620591922 0.4924837708389862 1 0 -1
178 1 13.660021270488464 13.093195236988963 0.5822535873369222 2 2 0
175 1 19.647310108263756 11.190635868587393 2.7761198845623567 4 0 -2
255 1 12.043311814320235 19.17322092142801 1.65393131924579 -3 -3 -3
71 1 16.544457706403005 18.500277585458775 1.237947537942396 3 3 4
45 1 18.954526880996696 19.081364591809287 2.0733483801546257 2 -5 -2
225 1 11.003771280697944 10.990894889158534 3.659685166835858 0 -3 3
14 1 17.412582064942836 17.769960669557545 9.628221277133195 -3 3 2
218 1 19.32916518218209 15.457882099535798 9.458832808702196 -3 3 0
245 1 19.061228552286828 15.403088675492668 2.943981614002142 0 -2 -2
84 1 12.12333329236858 17.01146888861963 2.951402530255469 -1 -4 2
78 1 13.999292396779547 14.76510579893611 2.7257795389301926 -1 -3 0
129 1 16.494600958028144 16.287296162846733 2.7896914827837844 2 5 2
136 1 15.150731708281135 14.28015263189872 9.333595685347822 0 6 6
36 1 15.654455680604146 11.63029649693926 5.2880951776347125 -3 -1 5
213 1 18.343871053112057 12.164231520941998 5.14199801833239 4 -2 1
210 1 11.742494742843643 12.763351042498252 5.771913462155461 -1 0 -5
215 1 14.041338582986981 13.605353427548907 5.319440635850264 -5 -7 2
152 1 18.906718341122957 14.62069878644362 5.729771960442257 1 4 0
52 1 10.317274011241638 16.444411664393733 6.730222416053115 4 -1 -4
151 1 14.53363136395713 15.894881122280971 6.7344008814531495 2 -3 -2
107 1 16.871733856945223 16.551230591046583 5.6975938406801285 -2 0 -5
124 1 12.71954158221351 17.74942055380966 5.648626444031883 -3 -3 -2
223 1 17.329620792262283 18.826824154716885 7.2504519212051814 -4 -5 1
196 1 18.97640202215321 11.49245903048721 9.449399095445454 -1 -2 -6
34 1 11.892631527141937 11.526597683103176 8.185083550483549 -1 -2 -2
212 1 10.337388000899152 15.770773410292371 9.309129231296211 -5 1 -4
21 1 17.673071026627767 13.599431845034083 8.323743548682454 -2 -2 5
37 1 12.933865343405218 18.807533827931504 9.534821934283697 0 -1 1
42 1 18.44812453346031 14.142557979025547 0.5031185994847939 5 2 3
66 1 10.540071075798874 12.146927281561199 17.090620456690917 2 -1 -3
254 1 16.6272813820483 10.620090508970938 12.675953999067197 2 4 3
62 1 12.029797102737545 12.312527934057705 12.327214660046852 5 0 0
97 1 16.52561872657754 13.339370377806915 11.732908165519806 0 -3 2
40 1 19.00911321147431 18.4616472684816 17.557606692843137 -1 1 2
143 1 10.381619953389121 18.173996794981274 10.555056318472156 2 3 3
193 1 14.840676450961306 17.114315758613863 10.5784525686034 2 -1 2
17 1 18.83044551057373 10.415507029391248 14.350156135659669 -2 2 -3
191 1 13.242003264799667 14.117009778416286 14.083386180545341 -6 -3 1
159 1 19.192197028720162 14.164677101607577 11.78817366152643 3 1 4
200 1 15.981529974845408 14.794123868220122 13.898494938131662 1 4 3
108 1 10.852508784081406 18.477219334475667 13.26331098787821 1 -5 2
110 1 13.531558256545988 19.1089083890032 13.811950020761742 3 4 -1
127 1 15.584782734084206 17.452215951316916 13.063794639190608 0 -1 -2
165 1 18.238771552500108 18.299171733190857 13.567092420822048 2 6 -1
41 1 13.902028254740667 10.226503067540943 12.603270590926808 -2 -1 5
174 1 14.773397509206385 10.714919593415383 16.797619746376927 0 -1 0
246 1 17.440723779962113 11.706808063631929 16.566132202461002 1 3 0
9 1 13.115807499332812 12.931978431187147 16.74768592955093 3 -4 4
216 1 17.426308593765867 14.392614216749356 16.320572699364465 -1 0 -3
195 1 11.575337207301395 16.28198566475859 15.057372922135867 -8 0 -3
57 1 16.48896907915409 18.23399829498524 18.77613817783781 1 0 4
58 1 10.217963781670003 10.767961706837053 19.368746972007607 1 -3 -3
251 1 19.052614640690035 10.698688147461104 18.329995818411412 -2 4 4
23 1 14.083215444444965 14.639627184985866 18.59808926812554 0 1 3
105 1 11.944532294252918 16.559201135577407 17.81333715997161 -6 -3 -1
13 1 16.615005323735943 15.393532928163781 18.960378901813428 1 1 -2
222 1 12.089468249806917 19.15751788174665 18.97278358859506 -5 -7 -4
187 1 18.12924854343682 19.704400490277376 11.040151580169052 -5 -1 1
140 1 12.281975444017055 13.785104182833251 9.907120429842346 4 3 -3

Velocities

28 -1.039589240141695 -3.7292461344619254 -3.8440627563287646
92 -5.4052470215253665 1.3678190488476236 -2.4691555282403033
61 2.6537730928725423 1.7732796147140402 -0.5814326906975787
19 -1.407479568485164 -5.057257381357058 -0.24191558814184094
56 1.7684482943488065 -5.710200768880007 5.695231418861709
209 -1.8768415347771747 -5.277470536423562 1.099557457942817
5 -3.6840763265584004 1.1522151611508717 0.41658905391005147
33 2.9326827492282046 3.0865465957831906 2.492382093818818
87 -0.18868156416837897 0.840034618180032 3.9750161104075445
238 -7.060000197202152 0.6251980865972262 -4.561643179358601
192 -1.5839587570828173 2.5656482060254793 -2.621906993529237
168 5.874393550952127 -0.7231270441036455 -4.761023261015209
144 -0.436234101727318 -3.2950531612170426 -3.241948022415363
188 0.33816384878167693 -3.168677350289297 -1.183139308034794
232 1.366875004871232 -1.2034786912927766 -1.1657237965626521
203 -2.0194577250872605 0.9251765049143716 -0.7726443876667936
137 -1.7284372455818209 3.9572406654297367 5.645006234741559
206 -3.289581127774209 5.427145257572556 3.488398648484016
207 -0.9420643898523237 -2.611982801003465 -0.7071882401588867
249 0.36230704998805463 -1.4430567539360786 0.5410164193074174
147 -0.1684418220636942 -5.049637610015958 0.7527889781837979
162 5.119336603100629 -1.945633178041891 1.10965453997185
68 -0.9462097007174464 4.279660693612527 1.7627519695997518
76 3.9927279657167145 1.3738447331483234 -3.6386644300621946
12 2.5153145215427246 -2.648673339300492 0.38579565421277695
173 1.4765864220028333 -2.1236637808762104 -0.26391759656125185
29 0.6762608142157323 2.2793378049469073 -2.000940720315853
54 -5.630553294826802 -2.353620747688731 3.653124310385935
67 -1.8535608070524865 -1.8111380608835743 -1.2107300601253692
95 -3.7111304328884795 4.9871495986263525 0.8592028075356353
115 -0.7521384306159422 -4.05716607540929 0.79475434963507
38 5.091841340754068 -2.7999957210060646 2.099593567538794
155 0.9040922745048436 -2.294460475475255 -0.6840393352931436
120 -2.5198508212958415 -0.38962518618499287 0.07404431959521779
150 -3.2839288919327676 0.48204952597755313 0.4224978499524466
169 2.575783293583927 -0.23639340280307358 -1.424918789410961
235 5.263244893760807 -4.793637610505328 -5.333554694341232
20 -3.3708789762176625 1.003381351808462 -2.7605816618979544
141 -2.860436613724419 -0.1418173131331663 1.6116667049083058
177 -1.082922554315545 2.9709005178322054 4.3477676516497406
237 1.5853974934225772 -4.158096738617959 -1.983609572132221
18 -4.9066622354800025 3.2252948163460027 0.16376643934031926
104 1.6709113665619069 2.9545837944505147 0.5682437773174369
131 -1.4063676227307862 -5.238489348598287 -5.375077322550817
243 0.48218718688537754 -0.9483294771329684 9.95953171536231
176 3.8250027899984342 -2.5126293312446255 0.8450075485491854
158 3.3030577824542733 -4.845120898068772 4.113528019774266
166 1.1787730631738604 -1.1276300794503968 3.677994474131535
102 -0.5360137704826231 3.462833505863099 4.241862130293541
194 1.2045837089353477 -1.5354280302172965 -1.8988375429108455
10 -5.925663374932196 -1.0767095590912763 -2.9944133166276186
51 4.538888401675962 5.270254068627353 2.0090634190504613
31 -5.542811051654424 -1.831144240693206 -0.6658008759859207
44 0.3390087872966429 2.6616690555627023 -3.52161083854796
208 -3.336048980768635 4.90250034750178 -2.0603304708162065
25 -2.673061064908897 3.857754040728611 -2.2479576903407077
91 -5.169837134590125 -2.563659255845044 2.6204502204110445
6 2.0419370997355726 -3.2088848716556275 -4.641200229965706
134 1.6180606066518377 1.3705928753360594 -0.6649810251306671
197 3.7448386952159307 0.9947902226749228 5.943922025696789
1 2.1245258147914856 1.4530160464461206 3.670694098503663
205 1.544230525146814 1.986523708823571 3.3554878882660235
138 0.5233265838965618 1.802660776452067 -1.1130823936837007
126 -1.5707361457129214 -6.46981557662575 -3.261449364461524
83 -5.978341242147791 -4.511619643194956 -0.86641564069458
220 1.3792529852219875 3.1135418151006524 -4.25698813682436
79 -0.22927930698282029 -4.820595194182468 -2.926719774731739
133 0.46285756340556794 -1.8992989324054697 2.520155403954539
64 3.509687695312067 2.5974827855220877 2.0912571358368406
148 -0.2822752245137371 0.9605026534599022 1.6829590185833683
217 1.883409576110844 -1.5012198558106638 -5.408347695060044
50 -0.6504048100698625 5.900954850415322 1.8081388575643984
231 -0.36771996627547265 1.517355737751351 3.2572785573821
39 0.24623824311820486 -1.186949958256614 1.4896217835594971
190 1.6465324339990455 0.7717191189771364 -5.089670055239845
118 -3.0599868147327562 2.451899583899572 0.2590698893391865
164 -1.5703473945656778 -0.44415779373115133 1.8941312313107734
99 1.2581892049347667 -4.04061158822627 4.897767785480306
3 2.234800542411534 -3.077692868468586 -0.8356065998430446
106 2.3759167684876896 1.6029492276735515 -0.13924651135867105
236 -1.7303288622327122 6.666638395772274 3.621673374664908
72 3.996105527825033 -1.067825304429141 -1.5286561688287916
7 1.8948138217034063 -1.6759835844650683 -4.226047867493157
233 -1.0095684627059145 -6.2254195343611265 -1.5233409846408903
219 4.163653938114597 -0.760439994637453 -6.7112003304048375
186 -2.3650079272424565 2.685214478130824 1.621870233641777
247 -4.3317104631908965 6.468603109449941 1.6341118197265823
149 2.9048533230508116 2.255392597142574 4.391784698113154
139 1.565042464792746 3.6072609674411913 3.6422453313782017
142 -2.4877154430829767 2.6568165740035274 -1.2317890343637614
86 7.032071297982921 0.01750760658508313 -0.23862682753562592
43 3.5588313650130488 0.3557768057727811 1.301693318230363
85 0.5403658432206677 1.0379875027883552 -4.196392753327782
228 -6.091506627965679 -3.734382576676421 6.899965150850603
81 7.401143546854673 2.2465411117652225 -2.709392860447951
182 -0.41251907452345005 0.856103285350575 0.7181464493209752
114 -1.4818552397331461 1.060712754483266 -7.580303568008142
93 -0.4044156766103112 1.3611822518935446 -1.3392005746746354
15 -3.1809499665516134 4.970111454028748 -1.4174945811543795
111 3.704078978807676 -2.96012956026554 -5.087871238763983
183 7.1974542210172 -1.4867728665049058 -3.43137327912336
94 -1.7505428322824617 4.986352020176098 -4.342917072317025
179 -5.290758749521715 -0.2442009702167799 1.9552136985966952
90 -4.488249444935937 2.0766597995722855 -2.3265963545943
113 -0.9956194959713808 -4.166206307311908 1.9416763958933936
48 1.4640103538666476 0.5407111820948337 -1.7342486914498416
221 -4.78080810808703 -2.493034848895152 -1.0396936938608023
74 0.8673670093293049 1.7560170853278174 0.9754780933068495
75 -1.6659496531484137 -0.6356368058108947 4.416607069945072
160 -1.5253462331550405 -2.6514864789286694 1.6213603014160884
185 -6.506511730906585 5.088320955306951 0.9301066941406033
226 2.822990948592867 4.610860027424294 -5.773293665357993
73 0.03486022956640544 2.1753769541726946 -1.9234428772494476
198 7.215569467732147 -0.07258155941218133 1.7103369232368049
250 -3.998608303995727 -1.7787219889132129 -1.9215321619763173
135 -0.15413164536490268 3.7169452782416537 -2.8019839707410474
130 4.950008358863667 1.119670350008319 1.9052200132386858
98 1.3205920248379308 3.24002749305225 -0.3897240236847758
227 5.313340463854747 0.5064425721094208 -2.175305537333441
122 -0.7937214939060451 -0.9222242698839673 -1.1177869508845917
167 5.328781598161432 1.2899407225114037 2.4238519391318967
100 0.8522939870574976 0.5547586635996684 2.937460893419791
199 -0.15160464080891597 1.3849138191200567 -2.9581821542256272
117 -1.3211386607859052 2.5526084009408336 4.361727707413634
30 1.7360751593532924 3.747919401160716 -1.7915187960299144
248 -1.0658308397794787 5.897000413824583 0.2683955528416578
240 1.4070899467633913 -3.2751471429292427 3.093169686144452
16 0.7941730161873507 -1.1171638993188369 -1.6766518848536718
49 2.627561781923771 -1.3861991192113743 -1.536331764428385
157 -1.4779413142433369 -5.292070329844775 0.6196704335189591
59 0.41938042180744556 1.1336222902685842 0.024331280638419633
170 0.23507656100882846 -0.6762200617849078 1.310218243375376
101 -2.035282884292316 -1.0066804673920333 -2.9919160633964568
224 1.9295244337742699 -3.898481462477603 -0.4087557423255477
201 0.49343966148309815 -0.21243740262664834 -4.795416799467506
46 2.408912085373261 3.0648543574822926 2.2319911663246894
47 1.9373734534446898 -3.3022953754194244 -5.451340676636636
181 -2.987960466133225 5.474995733036843 0.3140033254614052
24 4.346503958815521 -0.36652596795149495 0.41616527056517216
2 2.3039757690145994 -3.1144245261954038 1.8050867524570375
229 -1.2746607596961321 5.281725167999627 -2.34319513966912
230 -3.083470877904191 -1.9670008074969427 -4.45294382249271
55 0.08839220485862853 -0.9368977764034334 3.553804836205117
128 -3.5413999897562736 -2.873419243133765 -0.24032166357157125
125 0.8710337044500641 1.4778812695658825 5.808244434353144
172 -0.5596156543731132 0.308312498426691 2.00577830414218
202 -4.700105929734171 -0.47500240707975827 2.0575531352679426
171 -3.155197190210493 -0.6763898389331737 -8.431555348854241
32 -0.7394672343665187 0.5114040783191354 -7.7801287167901805
121 -3.460249468958774 -0.05026008072885346 2.551896506216931
234 2.569235692063067 3.873767470665796 0.7084036821153278
161 -3.89449781411634 0.9004505063880284 -0.4617501582488868
103 -1.2699192913904955 -2.4692604840329877 -2.0633782692452782
244 -1.2650420983742914 -2.0486502524470316 -3.3277429774181586
109 5.6749770193078195 4.612537314763192 -1.6077070522528552
65 -0.16380819059399676 -1.5709285719487758 -4.918995329502745
204 1.251466288652905 1.6728621580369845 -2.7485502639256536
89 2.391246985458193 -1.5189438366635424 -1.425330857328103
123 -0.3712583790378262 -1.271109335797002 3.167125566751482
80 -2.240677006164884 4.115068104172816 1.6641979011751933
69 -3.3612548299336877 3.3863153604774947 -1.7957051799524306
156 0.9609334758055749 1.2968671468555428 -3.832953072122871
252 -2.547618465408692 -2.6216975457507172 -1.9617297197656005
26 0.7036235111684468 6.536649583345369 -2.295659089304818
63 0.33727041266529284 0.2952702886395617 -0.3546573813782697
70 1.7796421949284058 -10.226643267321412 1.7154065675509742
242 2.121778896941166 -2.7637182221688725 -0.12658678633407763
239 -0.8624165993491492 -1.2492047249947849 -4.199042476063181
145 -1.9453917160708305 -0.4261677198913246 -1.8189832118340254
253 -2.7657527534448643 -0.8814271437945637 1.4023633292573354
60 -2.138036534703898 -1.6360239698467582 -1.8428724927690883
214 3.378690148518499 -2.4301897862403843 -1.9433416352762989
11 -2.1168821106806393 -2.0900847814407975 1.954656868320822
184 -1.8881216361288247 1.8769590908319818 1.9749802564210739
180 4.810246444977079 -3.663531919401847 0.3869264114761308
256 1.9523774251539798 -2.568673734554502 -0.14703194836013528
82 -7.091538654513717 0.04086508546176662 -1.1146240609223574
211 3.889284885460906 -0.5277304674470008 3.362171816829172
27 -0.9734389450854549 3.7860343313765537 -2.7114469576194566
241 0.9661227789445019 1.3081946595965601 -6.252592256146014
22 5.838573965287116 -2.596690426238857 1.7801241249289375
153 -0.5952636271070332 -3.307768665708027 -0.36441662569292244
112 -3.336349616772413 -1.749599521385456 6.145329375379482
146 -1.7775953920736633 0.09524677407431256 0.10041120749730258
77 -4.075510969422646 4.754738454125905 -1.7310119306879197
96 1.5869961930656373 -0.9270454186653891 -0.991733633296947
53 -5.87981882749204 -1.2351674880641588 -0.7152284243542176
132 1.9380422066301748 -6.396144476861595 -1.0636244970810527
189 1.3100970585147862 3.4928097523062283 1.7073006938729267
88 -3.10320263916761 1.697811562452536 3.4703734772171755
116 -0.6698421661870892 -2.8545303225987593 -0.9131087940462003
154 -7.241223609867581 -0.9938154015798116 5.520867610314435
8 1.5851084143936522 -6.190083099559578 2.338913177853362
4 4.163253455105014 1.8657796018097512 0.931558219119966
119 2.443584196127321 2.0410549703107606 -5.845488978622131
35 2.0056339175497784 -2.091587428881318 -2.82100613512334
163 -0.3374408945687094 4.114591193169436 1.6878664961672587
178 2.5439035707909823 -8.289931093362203 -1.0614757935113714
175 5.172808649586602 5.636834927933428 -3.4822671100505866