ITEM: TIMESTEP
10000000
ITEM: NUMBER OF ATOMS
256
ITEM: BOX BOUNDS pp pp pp
-2.6561532712137037e-01 1.9986193572241731e+01
-2.6561532712137037e-01 1.9986193572241731e+01
-2.6561532712137037e-01 1.9986193572241731e+01
ITEM: ATOMS id type x y z
192 1 1.5877 2.21394 1.35155
182 1 3.63259 0.237109 1.60666
92 1 6.2399 0.727163 0.654883
19 1 6.31011 3.66085 0.422205
67 1 8.86909 4.26373 0.142846
115 1 9.55148 6.37624 1.82978
33 1 0.930383 7.50497 0.880008
235 1 3.39454 8.54882 0.813874
87 1 7.63023 8.32034 1.65539
168 1 8.00728 0.780409 2.91798
61 1 2.43172 4.01365 3.33938
188 1 5.11582 4.68813 3.01619
5 1 0.504726 5.74455 3.18004
56 1 9.39021 5.23051 4.28242
137 1 5.10443 7.68464 2.77586
128 1 -0.0732033 1.91441 6.56606
54 1 4.65941 0.777452 5.91869
207 1 7.24539 1.52313 5.34979
144 1 2.40228 2.48342 5.72103
219 1 3.33312 4.60678 7.26423
147 1 7.00983 4.25446 4.85732
68 1 6.04007 5.47404 7.16985
12 1 1.46534 7.65737 5.1235
203 1 3.93826 8.84429 4.84554
173 1 5.8421 8.27922 6.95491
29 1 8.54652 9.02662 6.44291
206 1 3.85776 0.547854 8.72212
64 1 8.9755 0.333654 7.35903
232 1 3.12839 2.96108 9.5647
162 1 1.25422 6.8456 7.68451
155 1 7.29031 4.9302 9.66798
209 1 4.52818 8.7684 9.47694
18 1 0.94323 0.0218249 11.1188
160 1 8.06914 0.838429 10.1209
95 1 0.450298 2.79539 10.6253
20 1 4.72325 2.55661 12.0816
141 1 7.18176 3.12548 11.6081
237 1 1.95554 8.24154 10.1533
38 1 6.58304 7.7811 10.8281
126 1 8.8988 9.25992 10.6798
31 1 4.7832 -0.233511 12.7481
243 1 9.3501 -0.246174 14.5476
166 1 3.96592 3.64894 14.5683
169 1 8.01864 4.71757 13.6627
177 1 3.94331 6.50499 14.5004
194 1 6.46898 7.07331 13.4396
10 1 1.70582 7.73668 12.9039
104 1 1.20938 0.235817 15.5595
51 1 5.42096 0.774856 16.8166
220 1 9.82554 2.09123 16.1545
176 1 1.20845 3.19184 15.0973
208 1 5.61583 3.46512 16.767
25 1 8.00103 4.29814 16.1573
131 1 2.70021 7.9994 16.6608
134 1 6.93585 9.25054 15.0962
74 1 2.77159 0.484335 18.0819
138 1 7.32684 0.0386796 18.6555
44 1 0.175128 4.28326 17.5328
205 1 2.13913 3.01193 19.1272
91 1 4.41659 4.46864 18.7698
252 1 0.619904 6.89512 18.3653
6 1 4.21358 7.20798 18.7575
158 1 8.53909 6.01404 18.1385
1 1 6.71562 8.05884 17.5012
79 1 7.71642 9.64066 19.4251
249 1 3.18721 11.3389 0.67161
152 1 6.33993 13.752 1.53232
217 1 8.91319 14.4845 0.994389
148 1 0.386392 15.3917 0.554143
199 1 4.73776 15.8949 1.73354
114 1 -0.145215 18.1646 -0.0613955
197 1 2.58562 18.6587 -0.148419
40 1 2.17399 12.2192 2.91959
73 1 -0.153679 11.1311 3.53605
183 1 6.42697 12.1925 3.77533
236 1 8.4178 10.0648 3.69173
130 1 2.17516 14.9102 2.78677
81 1 9.52361 16.2485 2.95191
45 1 0.783678 18.6147 4.58344
227 1 3.49705 19.2202 4.23592
107 1 5.5127 17.4908 3.9583
120 1 8.21261 18.4357 3.7435
231 1 3.95814 11.4611 4.84715
233 1 7.15562 13.987 6.11502
99 1 9.54173 14.7957 5.17734
240 1 1.23608 15.9819 4.83064
228 1 3.0809 15.0859 6.98385
218 1 5.84225 16.3425 6.5753
65 1 0.102697 19.6307 6.95549
185 1 8.11859 18.0218 6.49965
186 1 0.574906 11.743 7.5304
72 1 3.20578 12.35 7.47819
251 1 4.95395 11.5564 9.26825
86 1 9.36251 10.986 8.35494
43 1 7.28101 12.5728 8.55464
85 1 1.80132 16.3315 8.8775
226 1 5.91731 16.6873 9.75465
133 1 1.78018 19.1023 8.88914
106 1 1.20899 12.0039 11.9334
102 1 0.413123 10.4903 9.90071
221 1 3.85282 12.9818 11.2806
198 1 8.0129 14.9148 9.98456
39 1 3.43564 15.6609 10.748
139 1 5.86002 19.6195 10.3445
118 1 0.582118 10.1664 13.9041
117 1 9.04235 11.1596 12.6526
100 1 9.39632 10.2188 14.9226
202 1 5.2514 13.3902 13.5262
113 1 7.58572 13.5415 12.4387
164 1 -0.00636571 16.108 13.6922
98 1 2.61213 16.6083 13.11
75 1 8.3454 15.2745 14.5809
15 1 2.28775 19.3684 13.3713
179 1 6.53502 19.71 14.6122
190 1 2.58362 10.7742 15.8402
245 1 5.21298 11.3475 15.0593
3 1 3.96694 14.7637 17.38
149 1 5.75585 12.7819 17.4407
135 1 8.20838 13.929 16.88
17 1 4.42671 15.6141 14.9879
213 1 6.54587 17.1435 15.4914
142 1 1.53597 11.8634 18.3729
90 1 5.95281 11.8892 19.922
175 1 1.30819 14.6784 18.2892
83 1 4.58252 16.8748 19.1461
48 1 8.97564 15.7809 18.7939
250 1 6.9846 17.5021 18.1317
244 1 15.0245 1.44105 0.349522
238 1 19.1942 1.54077 1.85116
109 1 10.7436 2.28604 0.453221
123 1 13.2531 3.35682 -0.232986
88 1 17.2509 2.91828 0.320897
224 1 14.0012 5.12929 2.02615
201 1 16.8143 5.43066 1.96493
101 1 11.9829 7.35485 1.54614
121 1 16.9017 8.48893 1.43986
229 1 19.4662 9.32429 1.35465
16 1 10.914 1.24933 2.78428
49 1 14.9197 0.160831 2.67368
46 1 15.8647 1.62536 4.74152
47 1 11.3401 3.05267 4.76951
181 1 13.8598 3.64712 4.34064
24 1 18.5301 2.37594 4.42324
170 1 18.3139 5.02186 4.10507
2 1 13.0808 9.38741 3.50243
55 1 11.4258 1.56009 7.1551
125 1 16.126 0.432845 7.1303
157 1 10.327 6.99609 6.45083
171 1 14.5964 5.61562 6.37697
30 1 17.3949 6.16734 6.62835
32 1 12.8413 7.83184 5.9477
116 1 17.7421 9.00953 7.16702
76 1 19.9769 9.85746 5.72693
80 1 13.5621 -0.160829 7.52436
172 1 16.5641 2.13391 9.06184
161 1 11.8911 3.63424 9.18447
230 1 14.6664 4.25335 8.88039
234 1 18.9372 3.23425 8.62663
59 1 9.90203 5.62984 8.81461
150 1 19.0594 5.9692 8.54949
103 1 13.4491 9.7626 7.98627
97 1 17.9728 9.47063 9.85453
26 1 11.8884 2.12176 11.425
247 1 10.0675 -0.0514636 11.7589
69 1 13.9223 0.131525 12.0296
156 1 16.437 0.866741 11.5766
239 1 10.7288 7.19619 10.891
63 1 15.2168 6.3361 10.5694
241 1 18.0381 6.86908 10.6023
145 1 13.3069 8.24164 10.4248
60 1 12.662 3.87206 13.3987
214 1 17.2876 2.81606 13.5247
8 1 19.7325 3.93934 13.3239
11 1 10.4881 5.78595 13.2891
184 1 15.2192 4.84397 12.8571
180 1 15.907 6.75798 14.9212
82 1 19.4363 6.69068 13.0843
256 1 13.8519 8.63371 14.2588
111 1 18.2521 8.55877 14.8543
211 1 14.3327 0.84526 16.5228
27 1 16.8138 1.77067 16.1946
22 1 12.5434 2.586 15.8314
112 1 15.6274 5.39352 17.2708
146 1 11.3611 7.84313 15.1478
253 1 10.0278 0.616222 18.5804
96 1 13.1247 4.75134 17.6728
153 1 17.806 3.58324 18.1009
189 1 11.1547 6.59586 17.6588
242 1 12.0885 8.50085 19.2941
77 1 14.3904 9.62519 18.1408
132 1 16.3907 7.76971 18.8257
196 1 18.6242 8.55577 17.6394
204 1 15.1645 10.4869 2.13608
119 1 10.8845 12.6232 0.656787
178 1 13.3389 13.6431 -0.0415988
50 1 18.1488 14.6157 0.942828
78 1 13.7033 15.4973 1.79445
129 1 16.2666 16.5655 1.14881
84 1 11.9203 17.5637 1.75685
225 1 11.0796 11.1278 2.98355
36 1 15.4949 12.0832 4.152
215 1 13.7813 14.2246 4.23952
42 1 17.9897 13.2408 3.46902
255 1 12.5316 19.4449 3.26452
71 1 16.8193 18.5245 3.10582
53 1 19.3935 19.0806 2.44094
89 1 15.7745 10.6801 6.71414
210 1 11.5383 12.9769 4.99789
122 1 18.9596 14.8508 5.54001
52 1 10.4476 16.7222 6.81491
21 1 14.5762 16.216 6.10944
151 1 16.9953 16.8255 5.3828
124 1 12.512 18.2219 5.68339
34 1 11.6952 12.0117 7.66303
140 1 12.2934 13.7548 9.63339
136 1 14.6768 14.6332 8.27972
4 1 16.3554 12.5304 8.50176
7 1 18.9011 13.6276 7.85016
212 1 10.4983 15.5971 9.35275
248 1 19.7303 15.4074 9.78886
223 1 18.061 18.5598 7.46964
62 1 11.5047 12.099 11.7132
41 1 13.7899 10.4562 12.012
93 1 16.1231 11.0869 10.8672
159 1 19.3811 13.9887 12.0402
193 1 15.5203 16.468 9.96251
143 1 11.0362 17.9438 10.9698
37 1 13.5024 18.5651 9.94719
187 1 18.7191 19.4577 11.5034
14 1 18.079 17.5181 9.88712
191 1 12.3584 14.1998 13.2369
254 1 16.8767 13.1105 12.9124
195 1 10.6206 16.3524 13.2545
200 1 14.9541 15.3022 12.6124
127 1 15.6359 17.3617 14.4673
110 1 13.7798 19.2698 14.6944
165 1 18.2488 18.251 13.7557
66 1 10.1562 12.2222 16.4664
174 1 14.3414 10.983 15.6183
246 1 17.0569 11.5294 15.2094
9 1 12.4219 13.2803 15.814
216 1 17.5549 14.0526 16.5638
13 1 15.1767 15.8623 16.7278
94 1 19.6735 15.39 16.2873
108 1 11.3617 17.9753 15.2724
154 1 18.7083 19.7901 15.9235
58 1 10.2721 10.9057 18.9875
35 1 14.9506 11.7014 19.6675
28 1 19.5559 10.7798 19.081
23 1 12.9688 14.8577 17.8965
163 1 17.6378 12.7638 19.1144
105 1 11.1569 16.8816 17.8178
57 1 16.3867 17.3815 18.9152
222 1 11.8 18.9192 19.5678
70 1 14.5254 19.6414 19.0597
167 1 18.7079 17.4834 17.8978
