LAMMPS data file via write_data, version 22 Jul 2025, timestep = 10000000, units = metal

256 atoms
1 atom types

0.008584694649007574 25.51873114575162 xlo xhi
0.008584694649007574 25.51873114575162 ylo yhi
0.004292347324503787 12.75936557287581 zlo zhi

Masses

1 18.015

Atoms # atomic

2 1 1.7675823217458653 1.4511507247716924 1.5158544472741577 0 0 0
88 1 8.084368031045313 11.106546149766647 4.843984763471124 0 0 0
66 1 8.109768092032445 1.8345710856655362 1.4039072891717923 0 0 0
27 1 3.3022907740190206 9.510875203722103 6.091632191757304 0 0 0
101 1 9.758772548644414 12.52868693002087 3.445063413641888 0 0 0
4 1 4.890535117245523 4.9418091443069185 1.4354351908774687 0 0 0
71 1 6.164501532112443 2.863854655044457 2.673531130765828 0 0 0
68 1 11.503682823283025 5.0845416540589 1.9115979445723439 0 0 0
85 1 9.55118788086094 6.619199721117737 3.1871562085231364 0 0 0
18 1 1.7054008118933035 8.083254781670409 1.1617292784947622 0 0 0
75 1 9.541090793914519 3.341574215063118 5.992101191748677 0 0 0
82 1 7.8390386604093445 7.906133276149083 1.4653137480240517 0 0 0
20 1 5.207294854212936 11.15895289511629 1.4209413093015442 0 0 0
86 1 11.17148980901579 8.022892854259183 4.66777208663193 0 0 0
84 1 11.216713262410456 11.23293580348919 1.8503897828305873 0 0 0
6 1 4.814896594732945 1.40339980245135 4.632555158128047 0 0 0
70 1 11.264226138598236 1.6730341491223328 4.765407397716612 0 0 0
8 1 2.002207754750851 4.825613499167754 4.595414901059668 0 0 0
24 1 1.4284182945506467 10.752828599891473 4.410591785579727 0 0 0
72 1 7.421803675048602 4.900781201786869 4.29981684932121 0 0 0
87 1 6.663656769110749 9.48474222857185 3.0563926937606682 0 0 0
21 1 3.432364310520117 6.636348263311207 3.107030117344232 0 0 0
7 1 0.29535509134805393 2.7156655445346427 3.5287669694377994 0 0 0
22 1 5.085803011183143 8.192575259650287 4.730983407627564 0 0 0
37 1 3.5050064962981873 12.444770792538216 3.2545908801925063 0 0 0
67 1 10.157603711576128 3.2539782213253927 0.19975883053824198 0 0 0
69 1 9.588590231754676 0.19798722895260132 3.0732510753985443 0 0 0
83 1 9.47071666306842 9.686948843426176 0.051196435474666346 0 0 0
161 1 12.607251042017923 12.68815203630854 0.15435012480166352 0 0 0
25 1 0.07425919643568557 6.3640741729874915 6.299245620919167 0 0 0
91 1 9.64630211881294 9.446619231730601 6.340059269582348 0 0 0
153 1 12.51045860053058 6.546843734066944 6.369651689697308 0 0 0
19 1 3.421134361456872 9.590360040389918 0.06496444928616862 0 0 0
10 1 1.490753432795624 1.5127308243930242 7.764455226877171 0 0 0
96 1 8.402336897825142 11.510945638639562 11.222869889669052 0 0 0
74 1 8.172158731411862 1.7234125847325505 7.857043300711848 0 0 0
12 1 4.681139836295906 4.940456760100332 7.99878765119684 0 0 0
79 1 6.232864624852559 3.1595375160316173 9.744058322241525 0 0 0
94 1 11.011843564560897 8.251428469453751 11.264205888565861 0 0 0
76 1 11.312834871656076 4.5580659580415785 7.799805524779485 0 0 0
29 1 3.2236202759065717 6.37490862772978 9.653663466978834 0 0 0
26 1 1.6515204322770192 8.007870297545582 7.806140228740831 0 0 0
30 1 5.131274688991168 8.132406080802351 10.831334832725716 0 0 0
95 1 6.7726923459664015 10.01681396129186 9.8111352803692 0 0 0
90 1 7.939189865011634 8.058559817419045 7.750605867146701 0 0 0
28 1 4.857648303420862 11.029524066932812 7.775699898385761 0 0 0
65 1 6.47578440137408 0.13851077574310067 12.665136059476641 0 0 -1
92 1 11.444221594817817 11.02932871083944 8.02162451081962 0 0 0
14 1 4.482358698724541 1.6750633088184967 11.315031836111089 0 0 0
81 1 6.73268172423639 6.1068430788461985 12.486911489901846 0 0 -1
78 1 11.352620343027333 1.5981397345559263 11.132863724462332 0 0 0
45 1 3.3734008801878272 12.68390318370241 9.508350786927505 0 0 0
16 1 1.2755983167926708 4.575188463112402 11.144826931143438 0 0 0
93 1 9.816865980241415 6.418366365960556 9.516013283891652 0 0 0
80 1 8.586869646135924 4.437384971683691 10.790949331210903 0 0 0
89 1 6.371659944059583 6.307243935156768 6.4154925252666795 0 0 0
32 1 1.5673655008969107 11.366335688597552 11.60075040797948 0 0 0
31 1 0.13153139994813162 9.592657929993205 9.67493387314337 0 0 0
73 1 6.397403087806935 0.12422121737635947 6.552360131026624 0 0 0
77 1 9.460899979908909 0.05607682716788834 9.465328832310743 0 0 0
145 1 12.680608188800132 6.7644994267504925 12.75144327467724 0 0 -1
105 1 6.496385179227862 12.73008955562887 6.603060907617124 0 0 0
3 1 2.7452188134578077 3.278003451516546 12.645584295447957 0 0 -1
11 1 3.4556197621745643 3.054563375916627 6.384176155019493 0 0 0
34 1 1.9727549606697965 14.42204292384128 2.041246217096563 0 0 0
98 1 8.018371541304248 14.395759458375423 1.8620300858494867 0 0 0
121 1 5.938832100759704 19.154269875787286 6.079725449600714 0 0 0
167 1 12.754490255982809 15.98422716605675 3.5274875674374244 0 0 0
41 1 0.20097619956711127 12.918676968315983 6.244733861760611 0 0 0
36 1 4.194162621960893 17.553377071220353 1.4378854186411703 0 0 0
100 1 11.277624696918974 17.62193987065298 1.6628296525388138 0 0 0
120 1 7.847261556334372 24.159733977532078 4.982729431824384 0 0 0
117 1 9.660278479250213 19.049675799381042 3.2864780748600024 0 0 0
119 1 6.534704833768758 22.280465557751846 3.30514777786327 0 0 0
50 1 1.4592078648307112 20.74740588967296 1.6662498408664754 0 0 0
56 1 1.352457697119918 23.813639043946296 4.681042437173055 0 0 0
114 1 8.060221033711091 20.521657193675566 1.5619767519207728 0 0 0
118 1 11.094808624633929 20.91603611899614 5.139643938645975 0 0 0
52 1 5.058969994088678 23.748548636091847 1.5573544855000947 0 0 0
113 1 6.227773026732316 19.34338755394237 0.11106022557520698 0 0 0
116 1 10.999706087590509 23.945789360834503 1.5225866263138839 0 0 0
38 1 4.567184326531907 14.491024268832193 5.032445911867632 0 0 0
102 1 11.22246361498922 14.476805535583637 5.108160933923368 0 0 0
40 1 1.6609910981087794 17.62620591953597 5.228443855504497 0 0 0
183 1 12.341716199653714 22.44276976808309 3.209133417431905 0 0 0
103 1 5.771715678204915 15.945698101157094 3.164438369114353 0 0 0
104 1 7.540948074429183 17.487599797255264 4.395244912541318 0 0 0
53 1 2.7020314114194566 19.04617356115957 3.060609847064683 0 0 0
54 1 4.475043356237194 20.7638843221224 4.2666856294774576 0 0 0
5 1 3.26126845761436 25.226380067856077 3.3120199987730135 0 -1 0
59 1 3.1417697367203714 22.367841683984096 6.161495733200657 0 0 0
51 1 2.904196353801456 22.430071758817498 0.18131442221878402 0 0 0
99 1 9.585453247507324 15.963341792430462 0.20724530391858728 0 0 0
107 1 9.368869627194515 15.903293716300556 6.184094865561496 0 0 0
39 1 0.1664236274624302 15.931859392942103 3.292620454498372 0 0 0
33 1 0.1512960923637143 13.074201863336896 0.3137543789656102 0 0 0
123 1 9.278651187439186 22.55077975786771 6.3136984776617835 0 0 0
42 1 1.5949738117061287 14.361595415117478 8.099417515830272 0 0 0
128 1 7.731674901148537 23.980430607185554 10.922937922973876 0 0 0
106 1 8.08206024743159 14.518625703237634 8.135779296238066 0 0 0
125 1 9.462733605956945 19.2883606916226 9.294136417603255 0 0 0
44 1 4.795885997908848 17.94239982375168 8.177177698159511 0 0 0
111 1 6.52958704265809 16.202400416730526 9.74421671910602 0 0 0
97 1 6.691679625357786 12.825956508727687 12.642335816967165 0 0 -1
108 1 10.876293597527093 17.30892604863198 8.045061954048563 0 0 0
185 1 12.606650859331966 19.066960750531457 6.583648708660157 0 0 0
58 1 1.8971100034005368 20.916493677317398 8.002672124922139 0 0 0
62 1 4.877072891188481 21.07995613883397 11.557072580786976 0 0 0
13 1 2.992569309562193 25.47848068488424 9.675428364199785 0 -1 0
35 1 3.0420375747795547 15.899338030536734 12.412522984148811 0 0 -1
127 1 5.9860078926903375 22.352838177035736 9.492828898597654 0 0 0
122 1 7.537719578507754 20.719391660489272 7.837567373307134 0 0 0
60 1 4.5740066401481565 23.995495433942033 7.807648601728083 0 0 0
43 1 3.3624970720790803 16.207919763762355 6.619549404507568 0 0 0
124 1 11.11101291121839 23.738696823710143 8.264389539638042 0 0 0
46 1 4.8951272350477 14.527835314364074 10.98433756547077 0 0 0
110 1 11.055940391493154 14.352449287511172 11.118303618343408 0 0 0
48 1 1.4561053892745963 17.740646284808257 11.196582470538473 0 0 0
115 1 9.413084600438493 22.282315405745265 12.469758976979694 0 0 -1
112 1 8.204411317106887 17.671246782421278 11.398601406156669 0 0 0
64 1 1.4434127804657584 24.229200986635888 11.17353466839738 0 0 0
61 1 3.327545794210478 19.49567097058786 9.981763051630832 0 0 0
126 1 11.232056046068607 20.70513954238637 11.096487631031128 0 0 0
137 1 12.499316531645771 25.449904519781334 6.498942415903787 0 -1 0
63 1 0.20551229406601354 22.313429325334695 9.474364936133657 0 0 0
57 1 0.07721646475178798 19.163593281113265 6.799595142659905 0 0 0
109 1 9.537274751154062 13.13181674684668 9.420467615324966 0 0 0
130 1 14.872520364285919 1.6808960100515984 1.7834601977835955 0 0 0
131 1 16.03982704548936 3.324349121719007 0.05499095978272092 0 0 0
194 1 20.691508919058805 1.1774113470509866 1.4298559352716944 0 0 0
132 1 17.80329689313084 4.814589060510167 1.7397369658602975 0 0 0
147 1 15.670340156809413 9.869850451844018 0.40892394326021875 0 0 0
196 1 24.08109312786312 4.286362062529938 1.8713858394015503 0 0 0
219 1 22.51793401113808 9.70532265964884 6.110224782855219 0 0 0
146 1 14.319424528803397 7.934945025036341 1.8490499646598617 0 0 0
214 1 23.723061818820184 7.6282890568818615 4.491227315534701 0 0 0
210 1 21.160964175556686 8.28908447864675 1.3409265750511838 0 0 0
133 1 16.195187449520652 0.11248510033606203 3.4397248571951367 0 0 0
215 1 19.087280800004642 9.265139652067795 3.039813355773025 0 0 0
148 1 17.688206279944872 11.385858486219293 1.5883491822366909 0 0 0
216 1 20.5823696657408 11.16573450746924 4.655104851243941 0 0 0
129 1 12.955274418802528 0.10427119827919419 0.2987237861110877 0 0 0
212 1 23.975568973015726 11.423845629297023 1.5798556372302277 0 0 0
134 1 17.83420593426792 1.7761816324756816 5.146224174010318 0 0 0
198 1 23.85834482623391 1.137386943901288 4.9262005517542615 0 0 0
136 1 14.487490525667647 4.8592519437559885 5.267660333315464 0 0 0
17 1 25.29815703128886 6.408123929014861 0.16244086699019203 -1 0 0
199 1 19.464535384691665 2.8852529521095884 3.3170800033382624 0 0 0
200 1 20.96547405787095 4.695615615028559 4.77264689005278 0 0 0
150 1 17.597339077652947 7.922255430453683 4.977709915159285 0 0 0
149 1 15.976755971663962 6.202918022532775 3.3892437131973843 0 0 0
213 1 22.409157606625755 6.213597038328673 3.039925471495474 0 0 0
152 1 14.636169638421507 11.242201555276647 5.147585033397003 0 0 0
229 1 22.24348275137374 12.681770327442205 3.199982756393687 0 0 0
151 1 12.908432817206332 9.9648177071815 3.3332732979436135 0 0 0
195 1 22.30268207538966 2.9761242413394435 0.0677515938611255 0 0 0
135 1 13.008746331791572 3.4101820276160466 3.2798283829994794 0 0 0
23 1 25.309955996110027 9.25132126386771 2.76099361556497 -1 0 0
1 1 25.246362688247586 0.20094514839629402 0.032925293468301295 -1 0 0
138 1 14.39953339572585 1.7182317049211142 7.734595127555402 0 0 0
202 1 20.693858221275185 1.4625657745694371 7.88906426608786 0 0 0
224 1 20.61256350950763 11.25672280943692 11.108811971505347 0 0 0
140 1 17.5725801581548 4.986888319107014 8.436614772136867 0 0 0
207 1 19.22501574157902 3.2817369502374687 9.420665253874212 0 0 0
204 1 24.0493765872827 4.572874926064306 7.705660083627321 0 0 0
209 1 19.30595690376422 6.518831226211253 12.674140626154887 0 0 -1
157 1 16.119319041421463 6.317454498262742 10.034696861636526 0 0 0
159 1 12.816254869236332 9.544599751051186 10.00631039748324 0 0 0
160 1 14.396520076746341 11.342820984485773 11.317695980117723 0 0 0
154 1 14.350421139157548 7.816859805144006 8.48045230595421 0 0 0
141 1 15.752842550628714 0.16283628312186077 9.540402867952668 0 0 0
223 1 19.434940275353114 9.53764500379692 9.498468631032484 0 0 0
218 1 21.144370393810824 8.012379660561477 7.743551926067559 0 0 0
156 1 17.83522589556769 11.071028149569827 8.063268433844215 0 0 0
220 1 24.150529953244103 11.088595714283521 7.824243048758331 0 0 0
142 1 17.617374861585382 1.722736049519641 10.926771629047973 0 0 0
155 1 16.09646994674778 9.216372551000207 6.986869117281113 0 0 0
206 1 23.601614613895485 1.408831796898605 10.929624077419284 0 0 0
144 1 14.186773413249096 4.993552568227379 11.484849014773353 0 0 0
221 1 22.559638538385286 6.210081570290812 9.369831516402883 0 0 0
158 1 17.25991498841232 8.365983015958475 11.436251129874023 0 0 0
208 1 20.83444008655801 4.663561452902864 11.070558440917114 0 0 0
222 1 23.75349742562723 8.07033956875249 11.088987438912685 0 0 0
173 1 16.320758867215268 12.52214745388216 9.594029135055678 0 0 0
211 1 22.37379060368098 10.036907399011355 12.450560986943483 0 0 -1
139 1 16.25140088610867 3.36594346278095 6.725334697404318 0 0 0
15 1 25.365266372970346 2.844751586867153 9.397582231559138 -1 0 0
143 1 13.020684117152495 3.282310320527228 9.727091897719667 0 0 0
217 1 19.093938596549535 6.333992012921896 6.67453916018104 0 0 0
203 1 22.672006661227158 2.8618539197260575 6.427544290990325 0 0 0
162 1 14.220358762495358 14.442738532853292 1.5921165132935187 0 0 0
226 1 20.747827267835028 14.330501291576095 1.5639394752843994 0 0 0
164 1 17.509215546149875 17.343229477032096 1.6755181396116505 0 0 0
49 1 25.371971798090357 19.21990204157111 0.20661416469220506 -1 0 0
231 1 19.296349209290433 15.8447140439938 3.197695081927399 0 0 0
228 1 23.921155329654376 17.243549894037052 1.5691827113178458 0 0 0
245 1 22.556878419893515 19.173409498486265 2.9715416447375316 0 0 0
184 1 14.278923025081324 24.062500735841226 4.807514602233402 0 0 0
178 1 13.886156698962477 20.633720771429005 1.716779760238217 0 0 0
242 1 20.60101306794659 20.668280043929705 1.674992025994706 0 0 0
247 1 18.925241025178224 22.03706281898107 3.1914350416657293 0 0 0
180 1 17.397469925294217 23.76385590307354 1.4754694171524583 0 0 0
165 1 15.877973542422138 13.0350323095987 3.1852046305896327 0 0 0
244 1 23.817060050673796 23.790318815492135 1.4449657993063278 0 0 0
187 1 15.509273202601944 22.09767764637919 6.2964859986474 0 0 0
166 1 17.535588963185717 14.283396168864854 4.899694857058193 0 0 0
197 1 22.32985191838113 25.33201740334013 3.1216572715680475 0 -1 0
230 1 23.751754845401813 14.507885617800804 4.747887570708331 0 0 0
168 1 14.204328071419898 17.398267764371603 5.069019896274839 0 0 0
246 1 23.915363287987667 20.515282253302892 4.924557917694923 0 0 0
232 1 20.85247436512502 17.81335495454126 4.49702545514736 0 0 0
248 1 20.54193133421306 24.047150240435904 4.554271478781786 0 0 0
181 1 15.635839362318936 18.793651990009685 3.110870391462154 0 0 0
182 1 17.153026692138035 20.594708890873108 4.649241454766156 0 0 0
251 1 22.02155428988729 22.27675349293203 5.949592782471552 0 0 0
55 1 25.206342352297852 22.13152768593985 3.1042759739792922 -1 0 0
233 1 19.130022161651432 12.844430306098232 6.306743710126099 0 0 0
249 1 19.217627825358754 19.105529582171236 6.084464757357114 0 0 0
241 1 19.02268188109293 19.080153133055575 0.12542767884464417 0 0 0
225 1 19.25097184221618 12.81386192455547 0.055968699145425654 0 0 0
227 1 22.052582528001764 16.192681531540764 0.06520794598715085 0 0 0
235 1 22.07245709717418 16.03068353572057 6.378459360475815 0 0 0
170 1 14.757859445537855 14.282269523660503 8.243991189148662 0 0 0
192 1 14.659834596185865 24.116183690633044 11.261075698985636 0 0 0
234 1 20.735573689729726 14.284935257172014 7.9793248989314405 0 0 0
239 1 19.302752178279704 16.219229835838867 9.441986107019634 0 0 0
236 1 23.82700491856731 17.331122788571427 7.900561958045727 0 0 0
172 1 17.428939173922863 17.531681267684633 7.938276183641621 0 0 0
189 1 15.974710651859716 19.33627507640523 9.480273322400873 0 0 0
163 1 16.03665261799052 15.824806845259275 12.677834613799487 0 0 -1
186 1 14.2577674569445 20.64102377343597 7.992346209733301 0 0 0
237 1 22.41122567958979 12.811255631477177 9.416140086774838 0 0 0
250 1 20.51419979423622 20.755965285009005 7.906396666836748 0 0 0
175 1 12.94512580741311 16.003547573783806 9.441607622686337 0 0 0
188 1 16.981234130760328 23.93727548068565 7.786020053601613 0 0 0
47 1 25.346176056767113 15.986089130994635 9.815096645684601 -1 0 0
252 1 23.633629516435207 23.18157519877699 7.724585066512623 0 0 0
255 1 19.06244903069924 22.398447244673626 9.188158742046465 0 0 0
174 1 17.859765223926267 14.296568095949864 11.059942685226378 0 0 0
191 1 12.82197862666933 22.431844484779077 9.883334099231796 0 0 0
238 1 23.621295883319583 14.230431568125544 11.54549498012399 0 0 0
176 1 14.592336194849135 17.510260701663277 10.981135081042211 0 0 0
256 1 20.537202726727706 23.887785292571643 10.841557600354111 0 0 0
240 1 20.744350975329574 17.833196568029457 11.21370396051055 0 0 0
190 1 17.643525907410705 20.573666969569793 11.097403292897173 0 0 0
253 1 22.283527085879577 19.166098820165374 9.367289872964424 0 0 0
254 1 23.79050815543738 20.6418927635548 11.034930374857751 0 0 0
193 1 19.00847655308891 25.299316922270926 12.443071643713601 0 -1 -1
205 1 22.18450574084737 25.29993773269021 9.257688414186159 0 -1 0
169 1 13.016122917246705 12.942265536726168 6.47496819587299 0 0 0
201 1 18.97663878854376 25.472067788313055 6.406963776542794 0 -1 0
171 1 15.897732225592556 15.65714575793833 6.479227556069315 0 0 0
177 1 12.806040990026245 19.16304794172312 12.584105439807047 0 0 -1
9 1 25.316149972164723 25.07867355097035 6.617894984603111 -1 -1 0
243 1 22.09711304217346 22.357911394450923 12.551505344778267 0 0 -1
179 1 16.012782583580083 22.020124734797953 12.734632253242838 0 0 -1

Velocities

2 1.0582837182908982 4.62210023085989 5.193031760363964
88 -2.8813207612789564 -1.9120918209037185 -3.136062291202314
66 -1.1202947548536795 4.743882783424607 -1.4839396328501777
27 1.5824363405300552 2.4989452484614807 0.014714715159299757
101 -1.1405054200147637 2.492256322784861 -0.40659609989978623
4 -5.625171755603663 -0.17113625481908956 2.758218291660675
71 0.30976414742624103 -4.36755419907214 -2.4301029073789198
68 -4.496593145047239 -1.2514379049312725 -1.6925998622865719
85 2.207875756972109 -2.1026364550716785 -2.5767104812747643
18 -3.7137615450527566 -2.573858075702164 1.0235500990426916
75 0.721083611732003 7.163946645350049 1.3159882578092943
82 1.8369173458447763 -4.060145479677499 -5.595814113213244
20 -0.12241167516001085 3.0154021670725015 3.62543268750784
86 -1.3005340044784446 0.795366229252534 2.429046936850816
84 -0.9696867535456419 -0.8386687659870987 1.8823952351875104
6 -2.253256876069257 2.283249094307052 -4.21509343234413
70 -1.0719874144302364 -1.3177794605836772 5.264904139888651
8 2.4084467681208985 0.1441932765016974 -7.993114514344803
24 -1.8069851350753214 -1.4314231568712623 4.258979806071476
72 -0.3273630820609865 -0.14346678339095803 -1.7987858522125297
87 1.5322781662413392 0.5542678206474148 2.0947735322350227
21 1.5377029020287478 1.190988285071738 7.062910870215355
7 -1.8978085635066417 3.869698731190589 2.342777672083246
22 -4.24351505789687 -2.763448971751756 -0.8168383101277024
37 1.3233210279907446 -3.857072981396045 5.281782500353281
67 5.002484110372415 -3.395064120351073 -1.3657696198399945
69 1.3231243766190404 -3.910272458731684 5.6828445045417375
83 2.5425666519023946 5.0903966367422635 -0.8412022496852429
161 3.8302175220630277 -2.773925422075387 1.8557017071524373
25 -6.059195469162666 -5.851501140857337 -0.8864517233563092
91 -0.8265991108846548 3.622841193047053 -1.378224548898631
153 4.004529298084188 -0.32465735524564154 3.688865784613511
19 -3.3365577554158232 -7.329996110665915 -0.2606211200724944
10 3.8891126885768563 -5.357364267369362 0.8382626439484686
96 3.6084047409215763 2.999591866934542 0.47346073554425505
74 -7.618672346753169 5.668743045795325 -5.413443755081609
12 2.8696982151560424 -2.9257053460698637 1.7993451968677268
79 -5.878724404898643 -1.9848678627226675 -2.376417943356541
94 -1.0860249284497405 7.1503982651583655 1.5754496963344624
76 -3.385315757634476 0.357412062389336 -1.3842696051877297
29 4.5521434666865535 -5.183288217294699 3.9707648156359667
26 1.2204929165455431 -1.5191162357039696 0.11762006239049616
30 -10.433731892318859 -3.8296961141797983 -0.8344482332630739
95 6.016636718573861 -3.548536212621142 0.3072153212746393
90 -6.368771935012608 1.529251787219049 -0.2837418067829659
28 0.7060737668919661 -3.30921434282639 -4.16576258954803
65 4.016039934507788 -1.9644707707617892 -1.247618402571218
92 7.522529382485174 -3.7380968481154837 6.282441041669152
14 1.175215801226561 0.25030257907178016 -6.043999081092401
81 0.9643342274009014 -5.434936531485647 -2.1634769933377767
78 -2.076496866415907 -0.4276461577388099 -2.191775663257362
45 4.000568186911052 0.9792090875094507 6.551717432843005
16 4.51393865445793 3.4208131324459785 -1.1605130873955585
93 -0.9855564235807824 8.00684164527903 1.8396316392627632
80 2.9040228412806632 2.6353231804319592 -1.1654184692090535
89 2.888773906605864 -0.9833679712661583 -2.291243822377265
32 -2.279474683113744 2.4240647557144634 2.2093840223485675
31 -5.592670005247719 0.009141757080615723 2.5763180925101627
73 2.418229208547353 -0.9927577831937369 -1.08715903546275
77 -5.229823080701871 -0.9042854672218824 -4.042533222320204
145 4.210242341248281 0.11389975441581988 1.4603622350945855
105 1.4992932222544475 2.111845334026684 4.05528373880059
3 -2.6719770016009257 -2.192574678948378 1.9217381838254002
11 0.21997377426732628 -1.7714006514281848 -0.3275974363825667
34 -1.1874888937131758 1.3495129097847207 5.352170648464352
98 1.965044745958084 -5.694502498742308 -2.4574384353111416
121 2.8426621259928897 -0.9054413517573265 7.562909028170641
167 4.371690806929477 3.0080505704030553 -1.4404526723091506
41 4.839793320610729 -3.0743592062834506 5.201089425422993
36 0.5685321647017737 4.659449513912485 2.984779979236003
100 3.2096225933836395 0.24533995312811474 1.3477829856939614
120 -0.8825749589857768 0.24030677278388865 -1.6688547309294368
117 -4.459417119526501 0.119464323735669 3.5581042642849967
119 -1.684498042741174 -1.2836727961777075 2.2911317136323284
50 3.502308909321553 -3.475549179132197 -2.389306421688349
56 0.7584896645139656 -0.9500475360179104 3.168132006762909
114 -2.9570945081354996 -7.219422810663808 4.931254566217993
118 -6.993128749480838 -0.5657134964868255 1.7786664859202395
52 1.1091857902288926 1.0040251800120779 -0.948001719205876
113 -5.08334039857476 -1.7351740878932742 2.900503548885835
116 -3.114563926981628 2.807524614137246 -5.8350610826210225
38 0.9307991785520473 5.73594591040124 -1.2032953744903743
102 5.552181408374013 -2.0312472086714166 1.458553902715576
40 4.836853866505806 6.799178299185829 1.0171897674535926
183 -7.433481707337508 1.3111118228741858 -0.5330190649453359
103 2.4602119978264447 6.427686889746579 -1.800467266960117
104 3.4566677962805397 -1.6749540415048259 1.2841017023187264
53 -0.6715444686045546 0.3993939156272559 -6.525438190537837
54 -0.35035983590859265 -3.585368280557062 7.512349328998919
5 -2.252230482522209 1.9272443458983122 -0.4546426077393268
59 3.241463827199571 2.0216930918539497 4.119577548419148
51 -0.2570122697744668 1.5770214940144425 -4.419859151301936
99 -1.3619568694553466 -4.167350935504581 -4.652473968056229
107 -1.920971881514777 2.052686542430587 -2.1539419278211174
39 -3.9352811194528456 6.94902522841941 -1.0274104860675175
33 -4.263961799499974 0.6437517868123954 0.6061643788681088
123 -0.29376743036787345 7.163248416243184 -2.6897485271417403
42 4.466028564746277 0.21877649981799285 -1.2004255435152273
128 -6.230875378409509 3.5510919410372788 7.851416886212848
106 -4.785691931067307 0.4770600387862447 -1.0016717296281206
125 -0.2793071101251535 2.2996402621430443 0.12025736192813184
44 -0.7598255118660457 0.21637146695146306 1.003546336967303
111 3.027227510485985 -4.968743373454606 0.681319238713857
97 2.1178517843092166 -11.114113205522452 6.207397897504386
108 1.5565782937817414 5.384068931831796 1.147442444138278
185 4.587056274197006 -3.0983708683167013 0.5732989760028449
58 -0.2517725130434315 -3.126445656903856 -1.0423334726073674
62 0.3965641599615807 1.788152149279407 -1.0494355591753177
13 -1.1613372104461148 2.517450581558568 0.19849100709837186
35 4.831614552577469 1.2960970205442375 -0.547691451103636
127 -3.3484429809294505 -1.6920337685641016 2.4726092602546546
122 -1.2139485225339008 1.8942080440632942 -2.256813363423606
60 2.690314750191455 7.189698160126732 3.599570046141605
43 2.6491526793250317 -2.1437396624809297 5.247446606280185
124 2.6711038969304823 -0.020106843106047698 -1.8497724949362653
46 -3.393492984172055 0.8042445129247944 1.909899514060315
110 -2.64061781786844 1.6797161209514189 0.2778586048161004
48 -0.7458704616592582 0.4483437988627046 1.2811785298676308
115 4.058928159906478 1.7389811682173548 -4.502636180008551
112 1.7328188495781047 1.557556910470437 -5.025937996453739
64 1.735529870598026 -5.4402577332692745 -2.8420619541484227
61 -8.1517540646364 -0.7832662704205222 -6.222580121807529
126 -0.8172707425741215 -1.314520616709359 -1.8892568059395936
137 3.8233200919046864 -2.800128642188051 -7.395675441429939
63 -0.09311792909245686 -2.050646469652967 1.19227012973578
57 0.04404260569231813 -3.726842830792563 -2.9917194893746575
109 -4.766100060903746 2.365003285899573 -1.7391158658184231
130 -0.9011523414945212 1.8545506932322346 8.07762720124614
131 -2.6224886693853384 -1.9078596167561885 -6.868179663300704
194 5.856288813865227 -1.1321346987807135 7.886974976542188
132 -3.121642544674702 -2.3107759091114977 4.028960757180375
147 0.37839465178884507 5.02185700682495 -0.8164374094630424
196 1.022931197743739 4.4440993852934865 -6.771458229607873
219 0.6785689301871332 0.2003470874134571 -2.9728748994504235
146 1.321644651880102 -2.324525563537361 0.19527069889313564
214 -11.27485123741887 0.23709900269478168 1.5342421898373493
210 -3.0277722138038374 -2.0689493841763467 1.943534113844727
133 0.21579102628647262 0.5349582803032819 1.3450318889340527
215 -2.170870379051214 -1.0378738701176975 -3.8935025280752273
148 3.9613880532104755 6.373496359146949 3.194100455733772
216 -3.9469756147643853 -0.2721858210484263 -4.792796962060346
129 0.1452456571297514 -1.725033432300508 0.5140534410510493
212 -1.2488415401876913 -3.440710747154823 3.6555881724454857
134 0.9015134755072184 10.752781362792676 -0.9070872921556808
198 2.8706909522688737 2.1721758077786713 -3.078896729377822
136 1.3905822019592589 -4.044682463817135 -2.5856607865406858
17 1.13155764293364 3.1809485128473 -3.457189858120452
199 7.99770370818213 -6.423020516625018 2.415561045486763
200 -0.7830092928840132 1.2073103844952437 -1.818995754998062
150 -1.5492542578726132 -3.1000188200096517 1.6174594519001733
149 1.5535185647580756 -1.5167350959632142 -5.890278220179489
213 7.187761925403459 -5.976000521885897 4.627604471055222
152 3.821166845656716 3.474049793670105 -1.9603942486557493
229 -1.2031778975126115 0.5306037380180375 2.5569632418305503
151 -3.4705155314112464 -1.5618210999893327 -0.7835134239426698
195 -0.4922126608230508 -1.2032271273305908 -0.7230596694536542
135 1.2985920118767018 -3.6431938868256966 -1.0903829491492179
23 2.647237878558172 -3.0161838821616116 -5.55033348829823
1 -3.56693604886625 0.7926830179931782 -1.252802503652723
138 3.7597905055960887 1.9812366856332415 -3.2637505149689208
202 -4.360952198922837 3.0217147913903606 4.569367044144803
224 -0.9699025824425905 -0.15272158472856856 -2.177341107619788
140 4.765857167256754 -2.928175437077152 0.39151424451264216
207 0.11510154550363305 0.7427186731092058 2.6369980541445353
204 6.4873641871680725 -1.6560171248999338 -1.5904333634498056
209 -0.620195058858347 3.174815792826722 3.9357865150513582
157 -5.3902394024264755 1.5474179985729306 -1.2857762967808282
159 -0.40769066997672065 -5.955995209981674 -1.7862598835148642
160 -6.5550940769825585 2.376920725777695 -0.5471593874215296
154 -1.1282955888112565 -5.583363020660337 -8.552903406209692
141 -4.5933868568744884 1.6920955530238009 0.41102908955733536
223 -4.5325837756898375 1.2248867066739018 0.5277438210891041
218 -0.3768359815435022 -0.35947543830955375 -1.6987614437084013
156 -1.6330303096224847 3.261609484605989 -5.267352503911086
220 1.2448363335442414 -0.775909045293887 6.218212359453074
142 -1.360559705101152 -3.0692508188943597 -3.7776114231516833
155 0.542777148947414 2.399212081031948 0.09501824631657739
206 2.5308716699212024 -1.479952250395081 0.26228519899686564
144 -0.36048135977794893 -0.7153660972571814 -0.3682124744164117
221 -1.1676689099146322 2.821562061569901 -5.028389139547402
158 1.737903292106838 -3.7960197487889613 5.836256495351362
208 -0.9591772886241055 2.7886760913946067 1.7870538738415662
222 0.4847431812638211 -1.272690956110766 -1.9867369048112786
173 -2.1059724719963926 2.5910102642322674 4.3914491818106285
211 -4.795661391791047 0.7381534662022378 1.1868872799864865
139 -0.7714867012071104 -0.6703474180944848 0.11471113647758824
15 0.9751918566997917 4.123431424867575 -3.279342623059419
143 -2.1256558638535203 0.5383395293969808 3.019534982409527
217 -1.0528748393645957 2.9973819645741595 4.057837828514414
203 8.108896234449018 4.141785334805881 1.0289676600804376
162 0.31544883331768925 2.165888708048807 -0.7037794332829516
226 4.1971327919576344 1.1794444717355446 1.9461017817349815
164 -4.85802596518579 -7.062216608910008 2.0125663319516494
49 5.318453018855192 -5.053631226190759 -5.193238371918275
231 0.5820026544934522 -4.0737117084206504 -3.1434184017512576
228 3.4899776326921987 -5.456525207473688 -0.45634462336794657
245 -0.15325624627777892 -4.976184835737079 3.821349606901094
184 -3.673080656725766 -4.101503558184784 1.7191133480202352
178 2.6720189539838084 -7.7520305564025795 3.8091593516681077
242 -2.7797658365141498 1.6382098166372372 -1.3197419886148052
247 -0.49371752697272797 -2.9100508291908005 -1.797448466099607
180 2.072375380747431 -0.9368939850464805 -0.5490702183344434
165 -2.357624435599856 6.720865472784516 -3.71607391789433
244 -2.916285946291094 0.05196999727272861 2.491015950350733
187 6.408325068922906 -2.453786196647039 -2.763292295188432