ITEM: TIMESTEP
10000000
ITEM: NUMBER OF ATOMS
256
ITEM: BOX BOUNDS pp pp pp
2.7571337828250719e-02 2.5499744502573787e+01
2.7571337828250719e-02 2.5499744502573787e+01
1.3785668914125360e-02 1.2749872251286893e+01
ITEM: ATOMS id type x y z
2 1 1.60355 1.68906 1.50195
88 1 7.30061 11.2729 4.61748
66 1 7.9308 1.72969 1.24023
101 1 9.52288 12.5502 3.37589
4 1 4.69274 4.76085 2.09901
7 1 0.346428 3.17393 3.31354
68 1 10.7373 4.61873 1.72599
24 1 1.63319 10.9486 5.04262
85 1 9.27569 6.16558 3.09084
18 1 1.14918 8.52647 1.98117
86 1 10.6883 7.91548 4.67418
82 1 8.06533 7.78084 1.50895
20 1 4.82225 11.1913 1.4965
83 1 9.79127 9.46784 0.0967407
84 1 11.0116 10.9268 2.01268
69 1 9.71105 0.140893 2.94496
6 1 5.04987 1.44601 5.18128
70 1 11.3011 1.73615 4.7145
8 1 1.7752 4.98266 4.9622
71 1 6.25642 2.89416 3.28761
72 1 7.89613 4.6392 4.59874
17 1 0.325491 6.52494 0.131793
21 1 3.0906 6.73761 3.27696
3 1 3.56876 3.11347 0.116837
22 1 4.79267 8.3863 4.84639
87 1 6.26755 9.34537 2.73074
81 1 6.01702 6.57026 0.397381
73 1 6.98339 0.141425 6.34247
5 1 3.20568 0.242889 3.25916
19 1 2.81219 10.032 0.248048
75 1 9.61247 3.47036 6.35256
89 1 6.41632 6.2588 6.08407
151 1 12.6998 9.21962 3.41341
37 1 3.3149 12.3656 3.34401
10 1 1.84281 1.6295 8.28587
65 1 6.64338 0.0824724 12.6723
74 1 8.22271 1.89944 7.92018
15 1 0.436723 3.54279 9.73483
12 1 4.74714 5.1385 7.85417
109 1 9.7668 12.5758 9.35286
77 1 10.0855 0.223377 9.7239
76 1 11.2341 5.11186 7.97612
94 1 11.141 8.07621 11.1088
95 1 6.14763 9.66634 9.6939
26 1 1.56888 8.08573 8.19093
30 1 4.46655 8.17196 11.6208
90 1 7.68332 7.74459 7.9792
28 1 4.95258 11.638 8.29408
92 1 11.2106 10.8439 7.843
14 1 4.99268 1.75021 10.8837
78 1 11.5036 1.58418 11.2232
16 1 1.87559 4.88465 11.574
32 1 1.52403 11.8015 11.2155
79 1 6.68106 3.5986 9.29898
80 1 8.15791 4.87603 11.4391
29 1 3.24422 6.53562 9.87637
93 1 9.4823 6.41456 9.42525
96 1 8.10647 11.2383 11.0828
91 1 9.12105 9.49393 6.4759
27 1 3.22845 9.69464 6.99529
67 1 9.64679 3.16042 12.5782
31 1 0.128655 9.74387 9.5794
41 1 0.106231 12.7284 6.51948
11 1 3.07905 3.01208 6.51689
145 1 12.5188 6.25731 12.7205
34 1 1.45112 14.559 1.93419
120 1 8.58187 23.6994 4.87552
98 1 8.14024 14.4467 1.6388
36 1 4.82058 17.5248 1.66254
183 1 12.4695 22.2682 3.54997
103 1 6.15143 15.829 3.33701
107 1 9.66627 15.8111 6.13104
100 1 11.0356 17.5424 1.47609
53 1 2.95957 18.8495 3.26971
167 1 12.48 15.8776 3.01037
50 1 1.45913 20.6898 1.53959
54 1 4.53148 20.7025 4.69754
114 1 8.07686 20.7917 1.66494
56 1 1.9003 23.9551 4.70695
52 1 4.84542 24.0538 1.64582
116 1 11.0757 23.8595 1.50736
104 1 7.71034 17.514 4.65848
38 1 4.4332 14.3223 4.80016
118 1 11.1746 20.1454 5.07193
102 1 11.3931 14.1657 4.74623
121 1 6.44687 19.283 6.27707
117 1 9.57298 19.007 3.14439
119 1 6.45017 22.3034 3.42306
40 1 1.34506 17.4342 4.81242
35 1 2.95422 15.9864 0.274012
51 1 3.13376 22.5108 0.156358
55 1 0.0599166 22.307 3.21455
57 1 0.153549 19.3823 6.2758
9 1 0.277002 25.4331 6.32722
42 1 1.34426 14.6337 8.30989
106 1 8.3715 14.6007 8.13602
44 1 4.74496 17.7574 7.95913
185 1 12.733 18.5832 6.38377
108 1 10.7758 17.4872 8.19455
123 1 10.1406 22.282 6.54215
62 1 4.87162 21.0016 11.2075
58 1 1.49616 20.8852 8.04018
13 1 3.47442 25.2954 9.52549
127 1 6.85377 22.4375 9.65934
122 1 8.25091 20.7838 8.058
105 1 6.72334 12.9661 6.53519
64 1 1.75458 23.7141 10.9075
60 1 5.43493 24.0235 8.05839
124 1 11.5287 24.0721 7.84445
126 1 11.5567 20.9055 11.2944
46 1 4.97129 15.0118 11.4043
175 1 12.6722 15.8079 9.40505
110 1 11.1919 14.1894 11.0853
128 1 8.5121 24.1005 11.2968
48 1 1.81762 17.4969 11.1924
111 1 6.55244 16.1187 9.47475
112 1 7.8847 17.7865 11.1161
61 1 3.12282 19.4721 9.53471
125 1 9.60744 19.5182 9.83579
43 1 2.90243 15.9827 6.55908
99 1 9.62441 15.9418 12.345
97 1 6.43956 12.9729 12.728
45 1 3.18337 13.4391 9.81046
1 1 0.480185 25.3675 12.6453
59 1 3.37446 22.6199 6.51981
129 1 12.7563 25.2544 12.6903
115 1 9.72346 22.2057 12.5964
113 1 6.26405 19.0954 12.4802
130 1 14.5338 1.29034 1.40558
135 1 12.8835 2.9799 2.8057
194 1 21.0837 1.53387 1.44247
132 1 17.5159 4.68404 1.61264
215 1 18.8542 9.82295 2.77617
199 1 19.1357 2.84364 3.00337
196 1 23.9007 4.79748 2.01887
149 1 15.9098 6.28927 3.12979
213 1 21.9207 6.42017 3.35308
23 1 24.9639 10.0934 3.46217
146 1 14.3687 7.81156 1.63712
216 1 20.6221 11.2131 4.25192
210 1 20.7868 7.93262 1.40455
139 1 15.8054 3.2576 6.12854
148 1 17.4418 11.2475 1.12149
137 1 12.8578 0.161219 6.34608
212 1 23.864 11.4905 1.32647
134 1 17.3385 1.29955 4.57667
198 1 24.2615 1.27025 4.50852
136 1 14.1648 5.12549 4.63272
233 1 19.1515 12.6771 6.09765
200 1 20.6021 4.38784 4.74632
161 1 12.766 12.6367 0.0176022
152 1 14.4101 11.1036 4.85062
150 1 17.4103 8.07447 4.59017
214 1 23.7889 8.05433 4.85187
165 1 16.1026 12.442 3.00029
203 1 22.5509 2.73325 6.28468
217 1 19.0188 6.21106 5.88252
195 1 22.7927 2.9671 0.215577
138 1 14.5477 1.82804 8.3099
222 1 24.2233 7.91999 11.2361
202 1 20.5349 1.80372 7.76499
147 1 15.898 9.18667 12.3774
140 1 17.5055 4.75761 7.49291
207 1 19.0965 3.3253 9.36095
204 1 23.9858 4.58567 8.06138
157 1 16.0201 6.07773 9.51491
154 1 14.6637 8.10187 8.21913
223 1 19.0983 9.43455 9.4637
218 1 20.6229 7.82942 7.6087
224 1 21.0005 11.0336 11.0221
205 1 22.5852 0.236259 9.15105
156 1 17.7415 11.0089 7.6923
220 1 23.9643 11.2547 8.18797
160 1 14.3143 11.2375 11.3154
142 1 18.0119 1.59203 11.0548
206 1 24.2952 1.55115 10.8608
144 1 14.3777 4.8948 11.2721
143 1 12.8047 3.46986 9.59671
208 1 20.9204 4.63161 11.098
155 1 15.9288 9.59506 6.415
221 1 22.318 6.37541 9.54144
158 1 17.6578 7.55725 10.8512
211 1 22.5211 9.42177 12.5821
153 1 12.7992 6.61714 6.55629
209 1 19.2655 6.13376 12.6266
131 1 16.3026 3.06958 12.4003
159 1 13.019 9.74074 9.52268
25 1 25.44 6.58064 6.48213
173 1 15.974 12.4571 9.61123
219 1 22.0243 9.68554 6.54127
169 1 12.8581 12.4803 6.53287
162 1 14.3686 14.2111 1.72299
226 1 20.581 14.7133 1.39548
164 1 17.3255 17.4154 1.89345
228 1 23.8757 17.8336 1.35698
178 1 14.3409 20.8354 1.9965
197 1 22.6422 25.2753 3.15369
241 1 19.0788 19.0663 0.181002
246 1 23.6795 20.9278 4.63318
247 1 19.1797 21.9778 3.19441
242 1 20.9948 20.6474 1.68151
184 1 14.3183 23.9534 4.64979
180 1 17.9296 23.8403 1.37238
177 1 12.8853 19.2978 0.269907
244 1 24.1227 23.9585 1.46447
166 1 17.3225 14.1591 4.94071
179 1 15.9 22.362 0.295403
230 1 23.6607 13.9481 5.04398
168 1 14.2023 17.0649 4.79266
231 1 18.8969 15.9249 3.59574
232 1 20.3963 17.6683 5.01231
181 1 15.5542 18.8252 3.29362
248 1 20.6982 23.9219 4.6449
245 1 22.2012 18.9449 3.1752
182 1 17.2803 20.6438 4.64613
229 1 22.1246 13.2074 2.90841
235 1 22.304 16.0355 6.11726
39 1 25.0699 15.9835 3.43759
133 1 16.0867 25.2177 2.89016
243 1 22.4524 22.2029 0.152077
171 1 15.7995 15.8816 6.28892
201 1 18.9663 25.3243 6.38007
170 1 14.602 14.1791 7.81674
47 1 25.2585 16.1733 9.7192
234 1 20.7732 14.6217 7.8483
187 1 15.5575 22.3229 6.43356
172 1 17.1432 17.5825 8.38358
255 1 18.8769 22.2629 9.63652
239 1 19.0065 16.0891 9.47956
190 1 17.4669 20.8172 11.5086
33 1 25.2446 13.434 12.7498
189 1 15.741 18.9553 10.043
236 1 23.8477 17.6815 7.90481
63 1 25.2898 22.2734 9.46499
186 1 14.1938 20.2638 7.70127
250 1 20.5717 20.626 8.26165
254 1 23.7166 20.6125 10.946
188 1 17.2562 23.5489 7.9118
253 1 22.1915 18.8622 9.76677
256 1 20.9227 23.5606 10.8346
252 1 24.1201 23.9299 7.93548
174 1 17.537 14.3767 10.8838
238 1 23.4409 14.5241 11.1184
176 1 14.1557 17.2884 11.2716
193 1 19.521 25.3413 12.5618
240 1 20.2605 17.4373 11.228
192 1 14.4259 24.0212 11.2044
191 1 12.9148 22.3096 9.34073
237 1 22.2491 12.9079 9.50166
141 1 16.0336 25.4345 9.51515
227 1 22.2144 16.3783 12.5609
251 1 21.9982 22.3739 6.67565
225 1 19.0971 12.8098 12.568
49 1 25.4731 19.0981 12.4802
163 1 15.8233 15.6609 12.696
249 1 18.6324 19.3778 6.74587
